 TITLE = "3D CFD - Natural Convection - Field Scalar Data"
 VARIABLES = "X", "Y", "Z", "Pressure", "U-Velocity", "V-Velocity", "W-Velocity"
 , "Temperature"
 ZONE I=18, J=18, K=18, DATAPACKING=POINT
  2.631578947368421E-002  2.631578947368421E-002  5.263157894736842E-003
   3.89331968409064       7.226799614627693E-003  7.226799615426295E-003
  1.682435353628488E-003  0.907447787886204     
  5.263157894736842E-002  2.631578947368421E-002  5.263157894736842E-003
   3.64490489176964       9.030787670536571E-003  7.226799615426295E-003
  1.682435353628488E-003  0.930585920396801     
  7.894736842105263E-002  2.631578947368421E-002  5.263157894736842E-003
   3.06416767102404       1.278685352698428E-002  6.321778746108148E-003
  5.178841811117572E-003  0.940178513773683     
  0.105263157894737       2.631578947368421E-002  5.263157894736842E-003
   2.19517304947485       1.553202433883004E-002  5.045010711733655E-003
  1.445328166170842E-002  0.959951581637638     
  0.131578947368421       2.631578947368421E-002  5.263157894736842E-003
   1.21657024797446       1.504007872257684E-002  3.380552790104492E-003
  2.664145402368235E-002  0.980142913066647     
  0.157894736842105       2.631578947368421E-002  5.263157894736842E-003
  0.407547990062451       1.057899651546238E-002  1.677576206587351E-003
  3.625746593783406E-002  0.991968835156392     
  0.184210526315789       2.631578947368421E-002  5.263157894736842E-003
 -2.822446058156072E-002  3.223592481490926E-003  3.392364553826320E-004
  4.126636585387800E-002  0.996415850802034     
  0.210526315789474       2.631578947368421E-002  5.263157894736842E-003
 -5.712466808539169E-003 -5.094447137122851E-003 -3.891833441710767E-004
  4.201304588785123E-002  0.996374473971313     
  0.236842105263158       2.631578947368421E-002  5.263157894736842E-003
  0.479605544397472      -1.212174799808637E-002 -4.254094464592834E-004
  3.803497504378005E-002  0.991750898218012     
  0.263157894736842       2.631578947368421E-002  5.263157894736842E-003
   1.33370786936478      -1.535619830766484E-002  1.237676338005283E-004
  2.812742169770669E-002  0.979111440136181     
  0.289473684210526       2.631578947368421E-002  5.263157894736842E-003
   2.28799162731134      -1.300344990767392E-002  8.660301497434241E-004
  1.435370297885066E-002  0.956911950621585     
  0.315789473684211       2.631578947368421E-002  5.263157894736842E-003
   2.93086486856191      -5.657977526248028E-003  1.219795668706922E-003
  4.577275687156380E-003  0.937764098295267     
  0.342105263157895       2.631578947368421E-002  5.263157894736842E-003
   2.96279121111737       3.621856367553205E-003  7.790898067795378E-004
  5.161187029723726E-003  0.938221755511974     
  0.368421052631579       2.631578947368421E-002  5.263157894736842E-003
   2.38921552531824       1.108065865198208E-002 -4.740113652483238E-004
  1.546961645155046E-002  0.957221650071332     
  0.394736842105263       2.631578947368421E-002  5.263157894736842E-003
   1.49566320463561       1.417551847076211E-002 -2.159349020963669E-003
  2.867199882937459E-002  0.978213637737661     
  0.421052631578947       2.631578947368421E-002  5.263157894736842E-003
  0.632675771125609       1.291703727105868E-002 -3.744575081764001E-003
  3.744121641031572E-002  0.990155990818866     
  0.447368421052632       2.631578947368421E-002  5.263157894736842E-003
 -4.184095572125683E-002  9.553046295551426E-003 -5.024603318738316E-003
  4.005440880237965E-002  0.994597043635793     
  0.473684210526316       2.631578947368421E-002  5.263157894736842E-003
 -0.739088479458025       7.716532579276632E-003 -5.024603318738316E-003
  4.005440880237965E-002  0.992796064003785     
  2.631578947368421E-002  5.263157894736842E-002  5.263157894736842E-003
   3.64490489176845       7.226799614627693E-003  9.030787667748773E-003
  1.682435353628488E-003  0.930585920396801     
  5.263157894736842E-002  5.263157894736842E-002  5.263157894736842E-003
   3.39172036314892       9.030787670536571E-003  9.030787667748773E-003
  1.682435353628488E-003   1.00000001000000     
  7.894736842105263E-002  5.263157894736842E-002  5.263157894736842E-003
   2.86193742522628       1.278685352698428E-002  7.983981984715392E-003
  5.178841811117572E-003   1.00000001000000     
  0.105263157894737       5.263157894736842E-002  5.263157894736842E-003
   2.08591394745737       1.553202433883004E-002  6.528954025340695E-003
  1.445328166170842E-002   1.00000001000000     
  0.131578947368421       5.263157894736842E-002  5.263157894736842E-003
   1.22446595289141       1.504007872257684E-002  4.621797648730119E-003
  2.664145402368235E-002   1.00000001000000     
  0.157894736842105       5.263157894736842E-002  5.263157894736842E-003
  0.519563553699190       1.057899651546238E-002  2.636330022834903E-003
  3.625746593783406E-002   1.00000001000000     
  0.184210526315789       5.263157894736842E-002  5.263157894736842E-003
  0.152340698843589       3.223592481490926E-003  1.017060536826297E-003
  4.126636585387800E-002   1.00000001000000     
  0.210526315789474       5.263157894736842E-002  5.263157894736842E-003
  0.202807168546240      -5.094447137122851E-003  2.656899055765736E-005
  4.201304588785123E-002   1.00000001000000     
  0.236842105263158       5.263157894736842E-002  5.263157894736842E-003
  0.672960296786787      -1.212174799808637E-002 -2.680748083652242E-004
  3.803497504378005E-002   1.00000001000000     
  0.263157894736842       5.263157894736842E-002  5.263157894736842E-003
   1.46873362999690      -1.535619830766484E-002  8.014201112152114E-006
  2.812742169770669E-002   1.00000001000000     
  0.289473684210526       5.263157894736842E-002  5.263157894736842E-003
   2.34358145829917      -1.300344990767392E-002  4.814767837229227E-004
  1.435370297885066E-002   1.00000001000000     
  0.315789473684211       5.263157894736842E-002  5.263157894736842E-003
   2.93662407166827      -5.657977526248028E-003  6.144737003246351E-004
  4.577275687156380E-003   1.00000001000000     
  0.342105263157895       5.263157894736842E-002  5.263157894736842E-003
   2.98749109919439       3.621856367553205E-003  1.149512476776007E-005
  5.161187029723726E-003   1.00000001000000     
  0.368421052631579       5.263157894736842E-002  5.263157894736842E-003
   2.49842759296815       1.108065865198208E-002 -1.357977277614202E-003
  1.546961645155046E-002   1.00000001000000     
  0.394736842105263       5.263157894736842E-002  5.263157894736842E-003
   1.71328226455768       1.417551847076211E-002 -3.124350034869165E-003
  2.867199882937459E-002   1.00000001000000     
  0.421052631578947       5.263157894736842E-002  5.263157894736842E-003
  0.938709397838398       1.291703727105868E-002 -4.770992799205087E-003
  3.744121641031572E-002   1.00000001000000     
  0.447368421052632       5.263157894736842E-002  5.263157894736842E-003
  0.338827751379218       9.553046295551426E-003 -6.077541870605814E-003
  4.005440880237965E-002   1.00000001000000     
  0.473684210526316       5.263157894736842E-002  5.263157894736842E-003
 -0.120713964797219       7.716532579276632E-003 -6.077541870605814E-003
  4.005440880237965E-002  0.994597043635793     
  2.631578947368421E-002  7.894736842105263E-002  5.263157894736842E-003
   3.06416767122293       6.321778736206142E-003  1.278685354398238E-002
  5.178841779422846E-003  0.940178513773621     
  5.263157894736842E-002  7.894736842105263E-002  5.263157894736842E-003
   2.86193742508363       7.983981982866971E-003  1.278685354398238E-002
  5.178841779422846E-003   1.00000001000000     
  7.894736842105263E-002  7.894736842105263E-002  5.263157894736842E-003
   2.40105761383912       1.134635870095532E-002  1.134635868171201E-002
  9.186347391276750E-003   1.00000001000000     
  0.105263157894737       7.894736842105263E-002  5.263157894736842E-003
   1.72744235899289       1.360431869629343E-002  9.372981560848634E-003
  1.839510144028954E-002   1.00000001000000     
  0.131578947368421       7.894736842105263E-002  5.263157894736842E-003
  0.995657477713218       1.285227149132813E-002  6.827443717820342E-003
  2.963483888765779E-002   1.00000001000000     
  0.157894736842105       7.894736842105263E-002  5.263157894736842E-003
  0.416546683271143       8.576912705734588E-003  4.177802040473706E-003
  3.823650073734344E-002   1.00000001000000     
  0.184210526315789       7.894736842105263E-002  5.263157894736842E-003
  0.145401580372997       1.764399518533681E-003  1.947306251634484E-003
  4.268892001797502E-002   1.00000001000000     
  0.210526315789474       7.894736842105263E-002  5.263157894736842E-003
  0.254292044829485      -5.880265712097767E-003  4.202021531378105E-004
  4.322786245091741E-002   1.00000001000000     
  0.236842105263158       7.894736842105263E-002  5.263157894736842E-003
  0.747497961536836      -1.230644633830108E-002 -3.556640449766599E-004
  3.915389479561120E-002   1.00000001000000     
  0.263157894736842       7.894736842105263E-002  5.263157894736842E-003
   1.53877099738988      -1.519331799356615E-002 -5.187743148877557E-004
  2.914049279912193E-002   1.00000001000000     
  0.289473684210526       7.894736842105263E-002  5.263157894736842E-003
   2.39888575850745      -1.289645735708480E-002 -4.195401724779816E-004
  1.522083584201200E-002   1.00000001000000     
  0.315789473684211       7.894736842105263E-002  5.263157894736842E-003
   2.99426717054893      -6.014442403563640E-003 -5.836128315678383E-004
  5.199253577412890E-003   1.00000001000000     
  0.342105263157895       7.894736842105263E-002  5.263157894736842E-003
   3.08630466764047       2.608468534813822E-003 -1.455924139309439E-003
  5.339284768878301E-003   1.00000001000000     
  0.368421052631579       7.894736842105263E-002  5.263157894736842E-003
   2.67588956735971       9.558035296800049E-003 -3.111228406133502E-003
  1.508913380105427E-002   1.00000001000000     
  0.394736842105263       7.894736842105263E-002  5.263157894736842E-003
   1.98148008152328       1.252283550893866E-002 -5.163016605091192E-003
  2.806943192007823E-002   1.00000001000000     
  0.421052631578947       7.894736842105263E-002  5.263157894736842E-003
   1.28468464145438       1.143897016735176E-002 -7.053871565911174E-003
  3.713337642326030E-002   1.00000001000000     
  0.447368421052632       7.894736842105263E-002  5.263157894736842E-003
  0.747847842813656       8.307941399672948E-003 -8.517460636646629E-003
  4.019516736819344E-002   1.00000001000000     
  0.473684210526316       7.894736842105263E-002  5.263157894736842E-003
  0.345849281871964       6.572136174281041E-003 -8.517460636646629E-003
  4.019516736819344E-002  0.992945906084487     
  2.631578947368421E-002  0.105263157894737       5.263157894736842E-003
   2.19517304872593       5.045010745371551E-003  1.553202431011793E-002
  1.445328178000343E-002  0.959951581637916     
  5.263157894736842E-002  0.105263157894737       5.263157894736842E-003
   2.08591394795740       6.528954009383851E-003  1.553202431011793E-002
  1.445328178000343E-002   1.00000001000000     
  7.894736842105263E-002  0.105263157894737       5.263157894736842E-003
   1.72744235840065       9.372981544304722E-003  1.360431875070612E-002
  1.839510130407713E-002   1.00000001000000     
  0.105263157894737       0.105263157894737       5.263157894736842E-003
   1.19674129860452       1.098439308346695E-002  1.098439302542271E-002
  2.605332941769426E-002   1.00000001000000     
  0.131578947368421       0.105263157894737       5.263157894736842E-003
  0.638257706959766       9.886457033859760E-003  7.744406899337623E-003
  3.461400419840650E-002   1.00000001000000     
  0.157894736842105       0.105263157894737       5.263157894736842E-003
  0.224498851432037       5.806606793339922E-003  4.462057589687651E-003
  4.096991706616446E-002   1.00000001000000     
  0.184210526315789       0.105263157894737       5.263157894736842E-003
  8.268763070030692E-002 -4.023176780619123E-004  1.696614507784316E-003
  4.420277458218425E-002   1.00000001000000     
  0.210526315789474       0.105263157894737       5.263157894736842E-003
  0.278661220992182      -7.295958747288532E-003 -2.604456061534141E-004
  4.417819852873280E-002   1.00000001000000     
  0.236842105263158       0.105263157894737       5.263157894736842E-003
  0.821344857392760      -1.302379139914600E-002 -1.338932315479251E-003
  3.976265685566929E-002   1.00000001000000     
  0.263157894736842       0.105263157894737       5.263157894736842E-003
   1.63248705370367      -1.543914321821591E-002 -1.637933750051258E-003
  2.951280631007938E-002   1.00000001000000     
  0.289473684210526       0.105263157894737       5.263157894736842E-003
   2.49775735774689      -1.308787090987298E-002 -1.509134827660750E-003
  1.553190185230686E-002   1.00000001000000     
  0.315789473684211       0.105263157894737       5.263157894736842E-003
   3.11089915687917      -6.642794861299277E-003 -1.589298466479972E-003
  5.320746968943075E-003   1.00000001000000     
  0.342105263157895       0.105263157894737       5.263157894736842E-003
   3.26007073789041       1.255871939427318E-003 -2.483712966741940E-003
  4.542186669547362E-003   1.00000001000000     
  0.368421052631579       0.105263157894737       5.263157894736842E-003
   2.94806479192614       7.613814687881371E-003 -4.352599581474978E-003
  1.268167595324322E-002   1.00000001000000     
  0.394736842105263       0.105263157894737       5.263157894736842E-003
   2.36475091446269       1.043739777989120E-002 -6.768650954666290E-003
  2.444886862291590E-002   1.00000001000000     
  0.421052631578947       0.105263157894737       5.263157894736842E-003
   1.76178379389250       9.595999694583092E-003 -9.043710709554986E-003
  3.339562040509909E-002   1.00000001000000     
  0.447368421052632       0.105263157894737       5.263157894736842E-003
   1.29695685305886       6.796168019094512E-003 -1.080608684425136E-002
  3.682897779829449E-002   1.00000001000000     
  0.473684210526316       0.105263157894737       5.263157894736842E-003
  0.952820648559287       5.211060520661853E-003 -1.080608684425136E-002
  3.682897779829449E-002  0.987869663495315     
  2.631578947368421E-002  0.131578947368421       5.263157894736842E-003
   1.21657024972130       3.380552709069433E-003  1.504007877477297E-002
  2.664145374718299E-002  0.980142913066426     
  5.263157894736842E-002  0.131578947368421       5.263157894736842E-003
   1.22446595173655       4.621797694336948E-003  1.504007877477297E-002
  2.664145374718299E-002   1.00000001000000     
  7.894736842105263E-002  0.131578947368421       5.263157894736842E-003
  0.995657479487408       6.827443708673882E-003  1.285227140621169E-002
  2.963483929647626E-002   1.00000001000000     
  0.105263157894737       0.131578947368421       5.263157894736842E-003
  0.638257705501337       7.744406845972437E-003  9.886457147799512E-003
  3.461400386224586E-002   1.00000001000000     
  0.131578947368421       0.131578947368421       5.263157894736842E-003
  0.278715482351103       6.350722914110222E-003  6.350722794466849E-003
  3.982764674219077E-002   1.00000001000000     
  0.157894736842105       0.131578947368421       5.263157894736842E-003
  5.069653530049047E-002  2.553514742988048E-003  2.843425436848455E-003
  4.363768123429490E-002   1.00000001000000     
  0.184210526315789       0.131578947368421       5.263157894736842E-003
  5.673018355530966E-002 -2.953544910092702E-003 -9.953162740971699E-005
  4.539289675492942E-002   1.00000001000000     
  0.210526315789474       0.131578947368421       5.263157894736842E-003
  0.357412704271901      -8.959036984436149E-003 -2.158381670127329E-003
  4.443219454335989E-002   1.00000001000000     
  0.236842105263158       0.131578947368421       5.263157894736842E-003
  0.963366804848907      -1.378789889623887E-002 -3.172979089713364E-003
  3.920245692036427E-002   1.00000001000000     
  0.263157894736842       0.131578947368421       5.263157894736842E-003
   1.79854756302792      -1.550782699860658E-002 -3.156394216509332E-003
  2.837883074008814E-002   1.00000001000000     
  0.289473684210526       0.131578947368421       5.263157894736842E-003
   2.66036409651309      -1.297486368875318E-002 -2.489470723693169E-003
  1.445973682474554E-002   1.00000001000000     
  0.315789473684211       0.131578947368421       5.263157894736842E-003
   3.27746559570764      -7.031287494820534E-003 -1.988573478581664E-003
  4.405283334042109E-003   1.00000001000000     
  0.342105263157895       0.131578947368421       5.263157894736842E-003
   3.47849989650802      -8.262455970109721E-005 -2.451663011526436E-003
  2.630376571224818E-003   1.00000001000000     
  0.368421052631579       0.131578947368421       5.263157894736842E-003
   3.27620375627786       5.417956640732921E-003 -4.142515130448918E-003
  8.354142269830344E-003   1.00000001000000     
  0.394736842105263       0.131578947368421       5.263157894736842E-003
   2.82923286274460       7.929198333772347E-003 -6.640462937689107E-003
  1.763300907789478E-002   1.00000001000000     
  0.421052631578947       0.131578947368421       5.263157894736842E-003
   2.34818118161249       7.313788274079161E-003 -9.149891179500491E-003
  2.541569142707032E-002   1.00000001000000     
  0.447368421052632       0.131578947368421       5.263157894736842E-003
   1.97871190599765       4.903711047736400E-003 -1.113077864069482E-002
  2.875333132347545E-002   1.00000001000000     
  0.473684210526316       0.131578947368421       5.263157894736842E-003
   1.72171571493739       3.498215167590939E-003 -1.113077864069482E-002
  2.875333132347545E-002  0.976610271926454     
  2.631578947368421E-002  0.157894736842105       5.263157894736842E-003
  0.407547986842316       1.677576354777436E-003  1.057899645055034E-002
  3.625746644728944E-002  0.991968835156588     
  5.263157894736842E-002  0.157894736842105       5.263157894736842E-003
  0.519563555828349       2.636329927829338E-003  1.057899645055034E-002
  3.625746644728944E-002   1.00000001000000     
  7.894736842105263E-002  0.157894736842105       5.263157894736842E-003
  0.416546679655273       4.177802087680078E-003  8.576912826892536E-003
  3.823649991331380E-002   1.00000001000000     
  0.105263157894737       0.157894736842105       5.263157894736842E-003
  0.224498855314607       4.462057615420770E-003  5.806606634140976E-003
  4.096991794911018E-002   1.00000001000000     
  0.131578947368421       0.157894736842105       5.263157894736842E-003
  5.069653256723562E-002  2.843425324161103E-003  2.553514928984878E-003
  4.363768061914730E-002   1.00000001000000     
  0.157894736842105       0.157894736842105       5.263157894736842E-003
 -2.144035102265794E-003 -6.475128492833124E-004 -6.475130428759510E-004
  4.544564021428577E-002   1.00000001000000     
  0.184210526315789       0.157894736842105       5.263157894736842E-003
  0.148443059447538      -5.424014678892239E-003 -3.292407432154439E-003
  4.572766785104752E-002   1.00000001000000     
  0.210526315789474       0.157894736842105       5.263157894736842E-003
  0.554286442260685      -1.041942490046397E-002 -4.983394515541973E-003
  4.338309161380766E-002   1.00000001000000     
  0.236842105263158       0.157894736842105       5.263157894736842E-003
   1.21825742606192      -1.410974859120894E-002 -5.420671131577150E-003
  3.672583650753800E-002   1.00000001000000     
  0.263157894736842       0.157894736842105       5.263157894736842E-003
   2.05624195338902      -1.486918541112456E-002 -4.540190247759027E-003
  2.505249250255930E-002   1.00000001000000     
  0.289473684210526       0.157894736842105       5.263157894736842E-003
   2.87542781186416      -1.202126798722726E-002 -2.817476154722595E-003
  1.164566582015251E-002   1.00000001000000     
  0.315789473684211       0.157894736842105       5.263157894736842E-003
   3.45119143168900      -6.647957998703027E-003 -1.267053002803332E-003
  2.546927593318567E-003   1.00000001000000     
  0.342105263157895       0.157894736842105       5.263157894736842E-003
   3.66747776295442      -8.647298409851662E-004 -8.225041879441682E-004
  3.570063364765038E-004   1.00000001000000     
  0.368421052631579       0.157894736842105       5.263157894736842E-003
   3.55641086661091       3.497884741187456E-003 -1.812101062584739E-003
  3.703467256273411E-003   1.00000001000000     
  0.394736842105263       0.157894736842105       5.263157894736842E-003
   3.24871192125173       5.441306916531698E-003 -3.864416332057185E-003
  9.737506265145761E-003   1.00000001000000     
  0.421052631578947       0.157894736842105       5.263157894736842E-003
   2.90640177411770       4.925655394790633E-003 -6.168841182261076E-003
  1.516272418914684E-002   1.00000001000000     
  0.447368421052632       0.157894736842105       5.263157894736842E-003
   2.64940540637448       2.911959534948778E-003 -8.027388520898533E-003
  1.763780028155213E-002   1.00000001000000     
  0.473684210526316       0.157894736842105       5.263157894736842E-003
   2.49791449483524       1.711348845486891E-003 -8.027388520898533E-003
  1.763780028155213E-002  0.958724189804281     
  2.631578947368421E-002  0.184210526315789       5.263157894736842E-003
 -2.822445553238006E-002  3.392362220258727E-004  3.223592558841477E-003
  4.126636505527551E-002  0.996415850801934     
  5.263157894736842E-002  0.184210526315789       5.263157894736842E-003
  0.152340695516764       1.017060692176564E-003  3.223592558841477E-003
  4.126636505527551E-002   1.00000001000000     
  7.894736842105263E-002  0.184210526315789       5.263157894736842E-003
  0.145401586294815       1.947306148768141E-003  1.764399378864306E-003
  4.268892136743949E-002   1.00000001000000     
  0.105263157894737       0.184210526315789       5.263157894736842E-003
  8.268762368770304E-002  1.696614521368848E-003 -4.023174854812168E-004
  4.420277298509331E-002   1.00000001000000     
  0.131578947368421       0.184210526315789       5.263157894736842E-003
  5.673018999116805E-002 -9.953154012958172E-005 -2.953545141599440E-003
  4.539289821375609E-002   1.00000001000000     
  0.157894736842105       0.184210526315789       5.263157894736842E-003
  0.148443055469101      -3.292407617151566E-003 -5.424014425540084E-003
  4.572766694332180E-002   1.00000001000000     
  0.184210526315789       0.184210526315789       5.263157894736842E-003
  0.421898246476904      -7.303168622266524E-003 -7.303168884778927E-003
  4.439729203862538E-002   1.00000001000000     
  0.210526315789474       0.184210526315789       5.263157894736842E-003
  0.911868103545595      -1.112168748577299E-002 -8.083077431372127E-003
  4.011980863634465E-002   1.00000001000000     
  0.236842105263158       0.184210526315789       5.263157894736842E-003
   1.60013123505498      -1.340233379743366E-002 -7.349667385186562E-003
  3.161141677352794E-002   1.00000001000000     
  0.263157894736842       0.184210526315789       5.263157894736842E-003
   2.38539887021299      -1.297690152745842E-002 -5.065593601905688E-003
  1.944112740054496E-002   1.00000001000000     
  0.289473684210526       0.184210526315789       5.263157894736842E-003
   3.09023689200479      -9.766232992332266E-003 -1.897581409682235E-003
  7.682021168311880E-003   1.00000001000000     
  0.315789473684211       0.184210526315789       5.263157894736842E-003
   3.55199516471511      -5.066086440860395E-003  9.814766267847725E-004
  7.777133986503784E-004   1.00000001000000     
  0.342105263157895       0.184210526315789       5.263157894736842E-003
   3.71929864085926      -6.120325724379168E-004  2.612547533304721E-003
 -7.079188099631563E-004   1.00000001000000     
  0.368421052631579       0.184210526315789       5.263157894736842E-003
   3.64819188807850       2.412451820364978E-003  2.674197569534865E-003
  1.246452094370017E-003   1.00000001000000     
  0.394736842105263       0.184210526315789       5.263157894736842E-003
   3.44665285610477       3.556926492038892E-003  1.494032591924228E-003
  4.517507802120981E-003   1.00000001000000     
  0.421052631578947       0.184210526315789       5.263157894736842E-003
   3.22797180560283       2.958364392053799E-003 -1.695504466618417E-004
  7.337725923627017E-003   1.00000001000000     
  0.447368421052632       0.184210526315789       5.263157894736842E-003
   3.07438889463889       1.290223236879024E-003 -1.521148441733350E-003
  8.532433076694034E-003   1.00000001000000     
  0.473684210526316       0.184210526315789       5.263157894736842E-003
   3.01130563381539       3.067322187564708E-004 -1.521148441733350E-003
  8.532433076694034E-003  0.942183290502593     
  2.631578947368421E-002  0.210526315789474       5.263157894736842E-003
 -5.712473831749987E-003 -3.891830197932711E-004 -5.094447214828037E-003
  4.201304699842907E-002  0.996374473971429     
  5.263157894736842E-002  0.210526315789474       5.263157894736842E-003
  0.202807173160520       2.656876764387987E-005 -5.094447214828037E-003
  4.201304699842907E-002   1.00000001000000     
  7.894736842105263E-002  0.210526315789474       5.263157894736842E-003
  0.254292036399690       4.202023176312551E-004 -5.880265570558844E-003
  4.322786052707511E-002   1.00000001000000     
  0.105263157894737       0.210526315789474       5.263157894736842E-003
  0.278661231497324      -2.604456708528342E-004 -7.295958947988833E-003
  4.417820092369984E-002   1.00000001000000     
  0.131578947368421       0.210526315789474       5.263157894736842E-003
  0.357412693588932      -2.158381720313360E-003 -8.959036739646991E-003
  4.443219211315097E-002   1.00000001000000     
  0.157894736842105       0.210526315789474       5.263157894736842E-003
  0.554286451009923      -4.983394351477850E-003 -1.041942518215496E-002
  4.338309360911174E-002   1.00000001000000     
  0.184210526315789       0.210526315789474       5.263157894736842E-003
  0.911868098519398      -8.083077684253202E-003 -1.112168718702368E-002
  4.011980749145142E-002   1.00000001000000     
  0.210526315789474       0.210526315789474       5.263157894736842E-003
   1.43676890400206      -1.048057031968779E-002 -1.048057062900932E-002
  3.362754238252630E-002   1.00000001000000     
  0.236842105263158       0.210526315789474       5.263157894736842E-003
   2.07831410418999      -1.111874161006565E-002 -8.094098126960974E-003
  2.375250184290358E-002   1.00000001000000     
  0.263157894736842       0.210526315789474       5.263157894736842E-003
   2.71915910102024      -9.449812007665495E-003 -4.112770941514251E-003
  1.268692969586084E-002   1.00000001000000     
  0.289473684210526       0.210526315789474       5.263157894736842E-003
   3.21492528577791      -6.004588830903984E-003  5.653174727555687E-004
  4.450418642550891E-003   1.00000001000000     
  0.315789473684211       0.210526315789474       5.263157894736842E-003
   3.47894541026487      -2.153439259309523E-003  4.714113614864766E-003
  1.191639138862022E-003   1.00000001000000     
  0.342105263157895       0.210526315789474       5.263157894736842E-003
   3.52452111455609       8.362195461341166E-004  7.452896822439210E-003
  1.686688093996250E-003   1.00000001000000     
  0.368421052631579       0.210526315789474       5.263157894736842E-003
   3.42877839785187       2.402576819732417E-003  8.529334387993534E-003
  3.593565464617989E-003   1.00000001000000     
  0.394736842105263       0.210526315789474       5.263157894736842E-003
   3.27901894135280       2.594172660788741E-003  8.269452884989316E-003
  5.319980165389114E-003   1.00000001000000     
  0.421052631578947       0.210526315789474       5.263157894736842E-003
   3.14292261799002       1.753367509197593E-003  7.377665238491730E-003
  6.222332028580093E-003   1.00000001000000     
  0.447368421052632       0.210526315789474       5.263157894736842E-003
   3.05862873781079       3.642413092044453E-004  6.702235418019142E-003
  6.267589575529375E-003   1.00000001000000     
  0.473684210526316       0.210526315789474       5.263157894736842E-003
   3.03386285806769      -3.987940185093294E-004  6.702235418019142E-003
  6.267589575529375E-003  0.938730165809483     
  2.631578947368421E-002  0.236842105263158       5.263157894736842E-003
  0.479605553275047      -4.254098563465032E-004 -1.212174793345402E-002
  3.803497364169142E-002  0.991750898217627     
  5.263157894736842E-002  0.236842105263158       5.263157894736842E-003
  0.672960290970624      -2.680745223203449E-004 -1.212174793345402E-002
  3.803497364169142E-002   1.00000001000000     
  7.894736842105263E-002  0.236842105263158       5.263157894736842E-003
  0.747497972370423      -3.556642709264205E-004 -1.230644646424151E-002
  3.915389726262044E-002   1.00000001000000     
  0.105263157894737       0.236842105263158       5.263157894736842E-003
  0.821344843504026      -1.338932197545493E-003 -1.302379122373307E-002
  3.976265369135326E-002   1.00000001000000     
  0.131578947368421       0.236842105263158       5.263157894736842E-003
  0.963366819778310      -3.172979082371044E-003 -1.378789912363381E-002
  3.920246031150323E-002   1.00000001000000     
  0.157894736842105       0.236842105263158       5.263157894736842E-003
   1.21825741241291      -5.420671261825842E-003 -1.410974832846030E-002
  3.672583340129849E-002   1.00000001000000     
  0.184210526315789       0.236842105263158       5.263157894736842E-003
   1.60013124545656      -7.349667149886031E-003 -1.340233409591481E-002
  3.161141913303169E-002   1.00000001000000     
  0.210526315789474       0.236842105263158       5.263157894736842E-003
   2.07831409858758      -8.094098426234247E-003 -1.111874129509022E-002
  2.375250057386708E-002   1.00000001000000     
  0.236842105263158       0.236842105263158       5.263157894736842E-003
   2.56920466391754      -7.041072053767852E-003 -7.041072379791863E-003