 TITLE = "3D CFD - Natural Convection - Field Scalar Data"
 VARIABLES = "X", "Y", "Z", "Pressure", "U-Velocity", "V-Velocity", "W-Velocity"
 , "Temperature"
 ZONE I=4, J=4, K=4, DATAPACKING=POINT
  5.000000000000000E-002  5.000000000000000E-002  1.000000000000000E-002
  0.000000000000000E+000  2.079787444426802E-002  1.602614525742799E-002
 -6.819529023215712E-004  0.802982373894100     
  0.100000000000000       5.000000000000000E-002  1.000000000000000E-002
  0.000000000000000E+000  9.229279819804153E-003  1.602614525742799E-002
 -6.819529023215712E-004  0.852236784045666     
  0.150000000000000       5.000000000000000E-002  1.000000000000000E-002
  0.000000000000000E+000 -8.212094678070438E-005  1.663571640817879E-002
 -5.183969683365664E-003  0.798522535999168     
  0.200000000000000       5.000000000000000E-002  1.000000000000000E-002
  0.000000000000000E+000  2.175072911098304E-003  1.663571640817879E-002
 -5.183969683365664E-003  0.731363379308593     
  5.000000000000000E-002  0.100000000000000       1.000000000000000E-002
  0.000000000000000E+000  2.079787444426802E-002  7.746846140710592E-003
 -6.819529023215712E-004  0.852236784045666     
  0.100000000000000       0.100000000000000       1.000000000000000E-002
  0.000000000000000E+000  9.229279819804153E-003  7.746846140710592E-003
 -6.819529023215712E-004   1.00000001000000     
  0.150000000000000       0.100000000000000       1.000000000000000E-002
  0.000000000000000E+000 -8.212094678070438E-005  9.095759807003334E-003
 -5.183969683365664E-003   1.00000001000000     
  0.200000000000000       0.100000000000000       1.000000000000000E-002
  0.000000000000000E+000  2.175072911098304E-003  9.095759807003334E-003
 -5.183969683365664E-003  0.798522535999168     
  5.000000000000000E-002  0.150000000000000       1.000000000000000E-002
  0.000000000000000E+000  2.708013144557903E-002 -9.417118919012547E-003
 -1.921133803004533E-004  0.859397607242916     
  0.100000000000000       0.150000000000000       1.000000000000000E-002
  0.000000000000000E+000  1.343661133774325E-002 -9.417118919012547E-003
 -1.921133803004533E-004   1.00000001000000     
  0.150000000000000       0.150000000000000       1.000000000000000E-002
  0.000000000000000E+000  3.320068982765466E-003 -8.532424522328570E-003
 -4.332065029252336E-003   1.00000001000000     
  0.200000000000000       0.150000000000000       1.000000000000000E-002
  0.000000000000000E+000  6.847046735623460E-003 -8.532424522328570E-003
 -4.332065029252336E-003  0.807518060053372     
  5.000000000000000E-002  0.200000000000000       1.000000000000000E-002
  0.000000000000000E+000  2.708013144557903E-002 -1.830178486201829E-002
 -1.921133803004533E-004  0.812530032727477     
  0.100000000000000       0.200000000000000       1.000000000000000E-002
  0.000000000000000E+000  1.343661133774325E-002 -1.830178486201829E-002
 -1.921133803004533E-004  0.859397607242916     
  0.150000000000000       0.200000000000000       1.000000000000000E-002
  0.000000000000000E+000  3.320068982765466E-003 -1.862065225048501E-002
 -4.332065029252336E-003  0.807518060053372     
  0.200000000000000       0.200000000000000       1.000000000000000E-002
  0.000000000000000E+000  6.847046735623460E-003 -1.862065225048501E-002
 -4.332065029252336E-003  0.743357345034688     
  5.000000000000000E-002  5.000000000000000E-002  2.000000000000000E-002
  0.000000000000000E+000  2.079787444426802E-002  1.602614525742799E-002
  2.610551473965947E-003  0.704473553091333     
  0.100000000000000       5.000000000000000E-002  2.000000000000000E-002
  0.000000000000000E+000  9.229279819804153E-003  1.602614525742799E-002
  2.610551473965947E-003  0.704473464664783     
  0.150000000000000       5.000000000000000E-002  2.000000000000000E-002
  0.000000000000000E+000 -8.212094678070438E-005  1.663571640817879E-002
 -9.309226842234015E-003  0.597045156825740     
  0.200000000000000       5.000000000000000E-002  2.000000000000000E-002
  0.000000000000000E+000  2.175072911098304E-003  1.663571640817879E-002
 -9.309226842234015E-003  0.597045056998337     
  5.000000000000000E-002  0.100000000000000       2.000000000000000E-002
  0.000000000000000E+000  2.079787444426802E-002  7.746846140710592E-003
  2.610551473965947E-003  0.704473464664783     
  0.100000000000000       0.100000000000000       2.000000000000000E-002
  0.000000000000000E+000  9.229279819804153E-003  7.746846140710592E-003
  2.610551473965947E-003  0.704473074098786     
  0.150000000000000       0.100000000000000       2.000000000000000E-002
  0.000000000000000E+000 -8.212094678070438E-005  9.095759807003334E-003
 -9.309226842234015E-003  0.597045629483082     
  0.200000000000000       0.100000000000000       2.000000000000000E-002
  0.000000000000000E+000  2.175072911098304E-003  9.095759807003334E-003
 -9.309226842234015E-003  0.597045156825740     
  5.000000000000000E-002  0.150000000000000       2.000000000000000E-002
  0.000000000000000E+000  2.708013144557903E-002 -9.417118919012547E-003
  4.122603858997479E-003  0.718795249220012     
  0.100000000000000       0.150000000000000       2.000000000000000E-002
  0.000000000000000E+000  1.343661133774325E-002 -9.417118919012547E-003
  4.122603858997479E-003  0.718794936736297     
  0.150000000000000       0.150000000000000       2.000000000000000E-002
  0.000000000000000E+000  3.320068982765466E-003 -8.532424522328570E-003
 -7.347070083457340E-003  0.615036904882117     
  0.200000000000000       0.150000000000000       2.000000000000000E-002
  0.000000000000000E+000  6.847046735623460E-003 -8.532424522328570E-003
 -7.347070083457340E-003  0.615036312097881     
  5.000000000000000E-002  0.200000000000000       2.000000000000000E-002
  0.000000000000000E+000  2.708013144557903E-002 -1.830178486201829E-002
  4.122603858997479E-003  0.718795199485832     
  0.100000000000000       0.200000000000000       2.000000000000000E-002
  0.000000000000000E+000  1.343661133774325E-002 -1.830178486201829E-002
  4.122603858997479E-003  0.718795249220012     
  0.150000000000000       0.200000000000000       2.000000000000000E-002
  0.000000000000000E+000  3.320068982765466E-003 -1.862065225048501E-002
 -7.347070083457340E-003  0.615036312097881     
  0.200000000000000       0.200000000000000       2.000000000000000E-002
  0.000000000000000E+000  6.847046735623460E-003 -1.862065225048501E-002
 -7.347070083457340E-003  0.615036105106744     
  5.000000000000000E-002  5.000000000000000E-002  3.000000000000001E-002
  0.000000000000000E+000 -6.053989239616539E-003  1.914986449582558E-002
  7.936095916158072E-003  0.390747799404195     
  0.100000000000000       5.000000000000000E-002  3.000000000000001E-002
  0.000000000000000E+000 -2.617543845015190E-003  1.914986449582558E-002
  7.936095916158072E-003  0.390747689935551     
  0.150000000000000       5.000000000000000E-002  3.000000000000001E-002
  0.000000000000000E+000 -1.288717508780222E-002  1.846960901176588E-002
 -3.748495060174804E-003  0.285067816370938     
  0.200000000000000       5.000000000000000E-002  3.000000000000001E-002
  0.000000000000000E+000 -2.659325172519060E-002  1.846960901176588E-002
 -3.748495060174804E-003  0.285067766940735     
  5.000000000000000E-002  0.100000000000000       3.000000000000001E-002
  0.000000000000000E+000 -6.053989239616539E-003  8.981741678370883E-003
  7.936095916158072E-003  0.390747689935551     
  0.100000000000000       0.100000000000000       3.000000000000001E-002
  0.000000000000000E+000 -2.617543845015190E-003  8.981741678370883E-003
  7.936095916158072E-003  0.390747258588271     
  0.150000000000000       0.100000000000000       3.000000000000001E-002
  0.000000000000000E+000 -1.288717508780222E-002  9.670324788314174E-003
 -3.748495060174804E-003  0.285068293283310     
  0.200000000000000       0.100000000000000       3.000000000000001E-002
  0.000000000000000E+000 -2.659325172519060E-002  9.670324788314174E-003
 -3.748495060174804E-003  0.285067816370938     
  5.000000000000000E-002  0.150000000000000       3.000000000000001E-002
  0.000000000000000E+000 -1.339259761775716E-003 -8.859479259633317E-003
  9.739545390055778E-003  0.407413194046507     
  0.100000000000000       0.150000000000000       3.000000000000001E-002
  0.000000000000000E+000  7.935640062121383E-004 -8.859479259633317E-003
  9.739545390055778E-003  0.407412959027365     
  0.150000000000000       0.150000000000000       3.000000000000001E-002
  0.000000000000000E+000 -8.742520762693705E-003 -7.117774781286025E-003
 -2.094124848508080E-003  0.300653585020527     
  0.200000000000000       0.150000000000000       3.000000000000001E-002
  0.000000000000000E+000 -2.041142929958740E-002 -7.117774781286025E-003
 -2.094124848508080E-003  0.300653013380702     
  5.000000000000000E-002  0.200000000000000       3.000000000000001E-002
  0.000000000000000E+000 -1.339259761775716E-003 -1.653257738018282E-002
  9.739545390055778E-003  0.407413150941320     
  0.100000000000000       0.200000000000000       3.000000000000001E-002
  0.000000000000000E+000  7.935640062121383E-004 -1.653257738018282E-002
  9.739545390055778E-003  0.407413194046507     
  0.150000000000000       0.200000000000000       3.000000000000001E-002
  0.000000000000000E+000 -8.742520762693705E-003 -1.510659012743452E-002
 -2.094124848508080E-003  0.300653013380702     
  0.200000000000000       0.200000000000000       3.000000000000001E-002
  0.000000000000000E+000 -2.041142929958740E-002 -1.510659012743452E-002
 -2.094124848508080E-003  0.300652803001015     
  5.000000000000000E-002  5.000000000000000E-002  4.000000000000001E-002
  0.000000000000000E+000 -6.053989239616539E-003  1.914986449582558E-002
  4.643591539870554E-003  0.260498557089269     
  0.100000000000000       5.000000000000000E-002  4.000000000000001E-002
  0.000000000000000E+000 -2.617543845015190E-003  1.914986449582558E-002
  4.643591539870554E-003  0.195373907202097     
  0.150000000000000       5.000000000000000E-002  4.000000000000001E-002
  0.000000000000000E+000 -1.288717508780222E-002  1.846960901176588E-002
  3.767620986935474E-004  0.142533890970367     
  0.200000000000000       5.000000000000000E-002  4.000000000000001E-002
  0.000000000000000E+000 -2.659325172519060E-002  1.846960901176588E-002
  3.767620986935474E-004  0.190045241106583     
  5.000000000000000E-002  0.100000000000000       4.000000000000001E-002
  0.000000000000000E+000 -6.053989239616539E-003  8.981741678370883E-003
  4.643591539870554E-003  0.195373907202097     
  0.100000000000000       0.100000000000000       4.000000000000001E-002
  0.000000000000000E+000 -2.617543845015190E-003  8.981741678370883E-003
  4.643591539870554E-003  9.999999939225290E-009
  0.150000000000000       0.100000000000000       4.000000000000001E-002
  0.000000000000000E+000 -1.288717508780222E-002  9.670324788314174E-003
  3.767620986935474E-004  9.999999939225290E-009
  0.200000000000000       0.100000000000000       4.000000000000001E-002
  0.000000000000000E+000 -2.659325172519060E-002  9.670324788314174E-003
  3.767620986935474E-004  0.142533890970367     
  5.000000000000000E-002  0.150000000000000       4.000000000000001E-002
  0.000000000000000E+000 -1.339259761775716E-003 -8.859479259633317E-003
  5.424828150757846E-003  0.203706582970660     
  0.100000000000000       0.150000000000000       4.000000000000001E-002
  0.000000000000000E+000  7.935640062121383E-004 -8.859479259633317E-003
  5.424828150757846E-003  9.999999939225290E-009
  0.150000000000000       0.150000000000000       4.000000000000001E-002
  0.000000000000000E+000 -8.742520762693705E-003 -7.117774781286025E-003
  9.208802056969237E-004  9.999999939225290E-009
  0.200000000000000       0.150000000000000       4.000000000000001E-002
  0.000000000000000E+000 -2.041142929958740E-002 -7.117774781286025E-003
  9.208802056969237E-004  0.150326409000507     
  5.000000000000000E-002  0.200000000000000       4.000000000000001E-002
  0.000000000000000E+000 -1.339259761775716E-003 -1.653257738018282E-002
  5.424828150757846E-003  0.271608690394173     
  0.100000000000000       0.200000000000000       4.000000000000001E-002
  0.000000000000000E+000  7.935640062121383E-004 -1.653257738018282E-002
  5.424828150757846E-003  0.203706582970660     
  0.150000000000000       0.200000000000000       4.000000000000001E-002
  0.000000000000000E+000 -8.742520762693705E-003 -1.510659012743452E-002
  9.208802056969237E-004  0.150326409000507     
  0.200000000000000       0.200000000000000       4.000000000000001E-002
  0.000000000000000E+000 -2.041142929958740E-002 -1.510659012743452E-002
  9.208802056969237E-004  0.200435133973731     
