 TITLE = "3D CFD - Natural Convection - Field Scalar Data"
 VARIABLES = "X", "Y", "Z", "Pressure", "U-Velocity", "V-Velocity", "W-Velocity"
 , "Temperature"
 ZONE I=16, J=16, K=8, DATAPACKING=POINT
  5.882352941176471E-002  5.882352941176471E-002  1.111111111111111E-002
 -2.356703444500866E-003  2.855520777316302E-002  0.000000000000000E+000
  1.636176725321735E-003   1.00000001000000     
  0.117647058823529       5.882352941176471E-002  1.111111111111111E-002
  1.691210320496353E-003  2.388270448945366E-002  1.055600692686339E-002
  1.636176725321735E-003   1.00000001000000     
  0.176470588235294       5.882352941176471E-002  1.111111111111111E-002
  2.577953468249326E-003  1.633257080124255E-002  1.235565259261644E-002
  9.497822957184523E-004   1.00000001000000     
  0.235294117647059       5.882352941176471E-002  1.111111111111111E-002
  3.300215297832918E-003  1.177300724384457E-002  1.334886874052732E-002
  3.213672575235105E-004   1.00000001000000     
  0.294117647058824       5.882352941176471E-002  1.111111111111111E-002
  3.030353076116456E-003  8.145575177005891E-003  1.325014536627640E-002
  6.249417554285500E-004   1.00000001000000     
  0.352941176470588       5.882352941176471E-002  1.111111111111111E-002
  2.933163176514879E-003  3.656961187940913E-003  1.281262250168860E-002
  1.076202551437560E-003   1.00000001000000     
  0.411764705882353       5.882352941176471E-002  1.111111111111111E-002
  5.689546193800851E-003  8.023449900046902E-004  1.369486941726659E-002
 -9.831975603161783E-004   1.00000001000000     
  0.470588235294118       5.882352941176471E-002  1.111111111111111E-002
  7.277684665478871E-003  3.078111578560258E-003  1.560718195042519E-002
 -7.217276158625469E-003   1.00000001000000     
  0.529411764705882       5.882352941176471E-002  1.111111111111111E-002
  6.254683753151420E-003  6.007993644877581E-003  1.405016825460483E-002
 -1.487813020919489E-003   1.00000001000000     
  0.588235294117647       5.882352941176471E-002  1.111111111111111E-002
  2.685668787960861E-003  4.059383346082685E-003  1.289473022794240E-002
  1.117295039664289E-003   1.00000001000000     
  0.647058823529412       5.882352941176471E-002  1.111111111111111E-002
  1.960820462149175E-003 -3.874813366355864E-004  1.310248414260413E-002
  1.192573821599511E-003   1.00000001000000     
  0.705882352941177       5.882352941176471E-002  1.111111111111111E-002
  2.447137233980760E-003 -4.138945165380536E-003  1.368950225143269E-002
  7.351799742891004E-004   1.00000001000000     
  0.764705882352941       5.882352941176471E-002  1.111111111111111E-002
  2.892582665496438E-003 -7.292999693983004E-003  1.406356153460292E-002
  5.461349301930719E-004   1.00000001000000     
  0.823529411764706       5.882352941176471E-002  1.111111111111111E-002
  3.223858372629310E-003 -1.069864757990772E-002  1.423753260534546E-002
  4.482125490688205E-004   1.00000001000000     
  0.882352941176471       5.882352941176471E-002  1.111111111111111E-002
  3.292754416457772E-003 -1.445149206675133E-002  1.421549313563594E-002
 -4.603634377958721E-005   1.00000001000000     
  0.941176470588235       5.882352941176471E-002  1.111111111111111E-002
 -1.646514838564148E-003 -1.635691939650304E-002  1.421549313563594E-002
 -4.603634377958721E-005   1.00000001000000     
  5.882352941176471E-002  0.117647058823529       1.111111111111111E-002
  5.562827681288858E-003  2.855520777316302E-002  0.000000000000000E+000
  1.636176725321735E-003   1.00000001000000     
  0.117647058823529       0.117647058823529       1.111111111111111E-002
  5.887676594257634E-003  2.388270448945366E-002  1.024777581779415E-002
  1.636176725321735E-003   1.00000001000000     
  0.176470588235294       0.117647058823529       1.111111111111111E-002
  6.296279891156016E-003  1.633257080124255E-002  1.168280242192164E-002
  9.497822957184523E-004   1.00000001000000     
  0.235294117647059       0.117647058823529       1.111111111111111E-002
  6.792000088558357E-003  1.177300724384457E-002  1.245238583286199E-002
  3.213672575235105E-004   1.00000001000000     
  0.294117647058824       0.117647058823529       1.111111111111111E-002
  6.682153335204220E-003  8.145575177005891E-003  1.238930716240190E-002
  6.249417554285500E-004   1.00000001000000     
  0.352941176470588       0.117647058823529       1.111111111111111E-002
  6.858390074839336E-003  3.656961187940913E-003  1.198288286972396E-002
  1.076202551437560E-003   1.00000001000000     
  0.411764705882353       0.117647058823529       1.111111111111111E-002
  8.769286795006102E-003  8.023449900046902E-004  1.229457771128619E-002
 -9.831975603161783E-004   1.00000001000000     
  0.470588235294118       0.117647058823529       1.111111111111111E-002
  8.629551502535892E-003  3.078111578560258E-003  1.326961273617539E-002
 -7.217276158625469E-003   1.00000001000000     
  0.529411764705882       0.117647058823529       1.111111111111111E-002
  9.097784860527220E-003  6.007993644877581E-003  1.249603096600314E-002
 -1.487813020919489E-003   1.00000001000000     
  0.588235294117647       0.117647058823529       1.111111111111111E-002
  6.538706440756895E-003  4.059383346082685E-003  1.203357738478767E-002
  1.117295039664289E-003   1.00000001000000     
  0.647058823529412       0.117647058823529       1.111111111111111E-002
  5.686979387546327E-003 -3.874813366355864E-004  1.236514239591394E-002
  1.192573821599511E-003   1.00000001000000     
  0.705882352941177       0.117647058823529       1.111111111111111E-002
  5.963691587164460E-003 -4.138945165380536E-003  1.285737084361451E-002
  7.351799742891004E-004   1.00000001000000     
  0.764705882352941       0.117647058823529       1.111111111111111E-002
  6.384499931904153E-003 -7.292999693983004E-003  1.317669840352851E-002
  5.461349301930719E-004   1.00000001000000     
  0.823529411764706       0.117647058823529       1.111111111111111E-002
  6.706545501224648E-003 -1.069864757990772E-002  1.335448389449138E-002
  4.482125490688205E-004   1.00000001000000     
  0.882352941176471       0.117647058823529       1.111111111111111E-002
  6.617896354225340E-003 -1.445149206675133E-002  1.339096988512904E-002
 -4.603634377958721E-005   1.00000001000000     
  0.941176470588235       0.117647058823529       1.111111111111111E-002
  3.655183507079705E-003 -1.635691939650304E-002  1.339096988512904E-002
 -4.603634377958721E-005   1.00000001000000     
  5.882352941176471E-002  0.176470588235294       1.111111111111111E-002
  3.973463999712572E-003  2.812024625067486E-002  0.000000000000000E+000
  2.473543590084970E-003   1.00000001000000     
  0.117647058823529       0.176470588235294       1.111111111111111E-002
  5.686850645121055E-003  2.366862677470660E-002  9.012658590346331E-003
  2.473543590084970E-003   1.00000001000000     
  0.176470588235294       0.176470588235294       1.111111111111111E-002
  6.224933110708254E-003  1.631073105814585E-002  9.953394678332787E-003
  1.892990421625316E-003   1.00000001000000     
  0.235294117647059       0.176470588235294       1.111111111111111E-002
  6.733211547333203E-003  1.165643204745439E-002  1.042992367511257E-002
  1.215406283485228E-003   1.00000001000000     
  0.294117647058824       0.176470588235294       1.111111111111111E-002
  6.704385829187203E-003  7.908381667958573E-003  1.043086349088976E-002
  1.508255760401740E-003   1.00000001000000     
  0.352941176470588       0.176470588235294       1.111111111111111E-002
  7.037120072307359E-003  3.403871049967291E-003  1.010235150595468E-002
  1.857374759211838E-003   1.00000001000000     
  0.411764705882353       0.176470588235294       1.111111111111111E-002
  9.026320931349729E-003  6.873802309891724E-004  9.769927351083424E-003
 -6.176485589397167E-004   1.00000001000000     
  0.470588235294118       0.176470588235294       1.111111111111111E-002
  8.965744836497086E-003  3.073577434366030E-003  9.687352646370807E-003
 -7.079847156925933E-003   1.00000001000000     
  0.529411764705882       0.176470588235294       1.111111111111111E-002
  9.369055516270647E-003  6.095891389872784E-003  9.791794621025168E-003
 -1.225573765283917E-003   1.00000001000000     
  0.588235294117647       0.176470588235294       1.111111111111111E-002
  6.761124297768919E-003  4.282130659062721E-003  1.013790365424996E-002
  1.829317231185928E-003   1.00000001000000     
  0.647058823529412       0.176470588235294       1.111111111111111E-002
  5.761415681628493E-003 -1.535458087213715E-004  1.060203673718657E-002
  2.077186622069630E-003   1.00000001000000     
  0.705882352941177       0.176470588235294       1.111111111111111E-002
  5.967627162222464E-003 -3.979739085600089E-003  1.095973056970049E-002
  1.587163091851738E-003   1.00000001000000     
  0.764705882352941       0.176470588235294       1.111111111111111E-002
  6.383478527118638E-003 -7.160308083146293E-003  1.119837023208358E-002
  1.353696567541485E-003   1.00000001000000     
  0.823529411764706       0.176470588235294       1.111111111111111E-002
  6.691499331622717E-003 -1.054169644062609E-002  1.137829563022413E-002
  1.245406684034348E-003   1.00000001000000     
  0.882352941176471       0.176470588235294       1.111111111111111E-002
  6.533127542883984E-003 -1.421321364541799E-002  1.149615441118031E-002
  7.061601258293801E-004   1.00000001000000     
  0.941176470588235       0.176470588235294       1.111111111111111E-002
  3.273028575989352E-003 -1.605552500862542E-002  1.149615441118031E-002
  7.061601258293801E-004   1.00000001000000     
  5.882352941176471E-002  0.235294117647059       1.111111111111111E-002
  2.870280985850129E-003  2.800431482522668E-002  0.000000000000000E+000
  2.745472175317526E-003   1.00000001000000     
  0.117647058823529       0.235294117647059       1.111111111111111E-002
  5.028312528787562E-003  2.360860815909839E-002  7.187037155095609E-003
  2.745472175317526E-003   1.00000001000000     
  0.176470588235294       0.235294117647059       1.111111111111111E-002
  5.636733453786191E-003  1.627198641955967E-002  7.925191088731310E-003
  2.249563479958101E-003   1.00000001000000     
  0.235294117647059       0.235294117647059       1.111111111111111E-002
  6.166956087886351E-003  1.153310521149107E-002  8.309233993413065E-003
  1.573484723186028E-003   1.00000001000000     
  0.294117647058824       0.235294117647059       1.111111111111111E-002
  6.186672840899523E-003  7.665180282490297E-003  8.371632752465136E-003
  1.870815685429212E-003   1.00000001000000     
  0.352941176470588       0.235294117647059       1.111111111111111E-002
  6.652374883133786E-003  3.054849714274631E-003  8.171685434555367E-003
  2.136369740264571E-003   1.00000001000000     
  0.411764705882353       0.235294117647059       1.111111111111111E-002
  8.851002644383184E-003  3.862646428527128E-004  7.865033745340146E-003
 -6.011899445575424E-004   1.00000001000000     
  0.470588235294118       0.235294117647059       1.111111111111111E-002
  8.941036218573301E-003  3.054150063958004E-003  7.719615125216404E-003
 -7.181775680965540E-003   1.00000001000000     
  0.529411764705882       0.235294117647059       1.111111111111111E-002
  9.247666603868686E-003  6.376791216217294E-003  7.880453631855097E-003
 -1.281671099997266E-003   1.00000001000000     
  0.588235294117647       0.235294117647059       1.111111111111111E-002
  6.436367200994959E-003  4.658791471273356E-003  8.262161704151519E-003
  2.047831945934422E-003   1.00000001000000     
  0.647058823529412       0.235294117647059       1.111111111111111E-002
  5.274704098888578E-003  1.453697735147167E-004  8.664438657356837E-003
  2.442089575894901E-003   1.00000001000000     
  0.705882352941177       0.235294117647059       1.111111111111111E-002
  5.437434708135016E-003 -3.781664749311729E-003  8.945139615703337E-003
  1.934366096341293E-003   1.00000001000000     
  0.764705882352941       0.235294117647059       1.111111111111111E-002
  5.861977233257628E-003 -6.972920142920707E-003  9.142516977326872E-003
  1.657063074132992E-003   1.00000001000000     
  0.823529411764706       0.235294117647059       1.111111111111111E-002
  6.166415130690329E-003 -1.029169395717935E-002  9.312389030843370E-003
  1.534902583321617E-003   1.00000001000000     
  0.882352941176471       0.235294117647059       1.111111111111111E-002
  5.970710718965789E-003 -1.383262435375792E-002  9.444569809786984E-003
  9.808161871256375E-004   1.00000001000000     
  0.941176470588235       0.235294117647059       1.111111111111111E-002
  2.593001033728645E-003 -1.558788132606994E-002  9.444569809786984E-003
  9.808161871256375E-004   1.00000001000000     
  5.882352941176471E-002  0.294117647058824       1.111111111111111E-002
  2.338209655063969E-003  2.796559913431286E-002  0.000000000000000E+000
  2.791936342608095E-003   1.00000001000000     
  0.117647058823529       0.294117647058824       1.111111111111111E-002
  4.587237148621089E-003  2.357770349125633E-002  5.585740113079727E-003
  2.791936342608095E-003   1.00000001000000     
  0.176470588235294       0.294117647058824       1.111111111111111E-002
  5.206909040794895E-003  1.623245615857995E-002  6.186392209218313E-003
  2.330181334451266E-003   1.00000001000000     
  0.235294117647059       0.294117647058824       1.111111111111111E-002
  5.734505084999637E-003  1.145021837978035E-002  6.523387233304620E-003
  1.672641770573829E-003   1.00000001000000     
  0.294117647058824       0.294117647058824       1.111111111111111E-002
  5.763501168364246E-003  7.511162319833049E-003  6.636768110868609E-003
  1.994621916298878E-003   1.00000001000000     
  0.352941176470588       0.294117647058824       1.111111111111111E-002
  6.290109897563187E-003  2.832732778736473E-003  6.580956733715582E-003
  2.244514365969747E-003   1.00000001000000     
  0.411764705882353       0.294117647058824       1.111111111111111E-002
  8.595956111451817E-003  1.945694543889657E-004  6.461401525854222E-003
 -5.661875893734977E-004   1.00000001000000     
  0.470588235294118       0.294117647058824       1.111111111111111E-002
  8.761962352198198E-003  3.051589461110856E-003  6.426175416285097E-003
 -7.144765062119360E-003   1.00000001000000     
  0.529411764705882       0.294117647058824       1.111111111111111E-002
  9.024559466577653E-003  6.583067641321100E-003  6.515929373739170E-003
 -1.274235314940801E-003   1.00000001000000     
  0.588235294117647       0.294117647058824       1.111111111111111E-002
  6.105373135835600E-003  4.943450866161297E-003  6.741035533253645E-003
  2.130491794207609E-003   1.00000001000000     
  0.647058823529412       0.294117647058824       1.111111111111111E-002
  4.852675708878332E-003  3.947174669543881E-004  7.006122871971057E-003
  2.579330871702839E-003   1.00000001000000     
  0.705882352941177       0.294117647058824       1.111111111111111E-002
  4.994580339015154E-003 -3.585011386385271E-003  7.217986831870641E-003
  2.055416021565669E-003   1.00000001000000     
  0.764705882352941       0.294117647058824       1.111111111111111E-002
  5.429228474919727E-003 -6.768733560789544E-003  7.388131749338132E-003
  1.750517132709495E-003   1.00000001000000     
  0.823529411764706       0.294117647058824       1.111111111111111E-002
  5.733798864729811E-003 -1.003175851017369E-002  7.540919623544222E-003
  1.620261319381433E-003   1.00000001000000     
  0.882352941176471       0.294117647058824       1.111111111111111E-002
  5.527666406895721E-003 -1.349337007332607E-002  7.654235517776869E-003
  1.065950789145535E-003   1.00000001000000     
  0.941176470588235       0.294117647058824       1.111111111111111E-002
  2.161270984675921E-003 -1.520451221273615E-002  7.654235517776869E-003
  1.065950789145535E-003   1.00000001000000     
  5.882352941176471E-002  0.352941176470588       1.111111111111111E-002
  2.047055461392475E-003  2.789701993881269E-002  0.000000000000000E+000
  2.791738136472708E-003   1.00000001000000     
  0.117647058823529       0.352941176470588       1.111111111111111E-002
  4.317979338160023E-003  2.351751097142952E-002  4.347211774878776E-003
  2.791738136472708E-003   1.00000001000000     
  0.176470588235294       0.352941176470588       1.111111111111111E-002
  4.939017251109330E-003  1.618278068668357E-002  4.829739347368210E-003
  2.334366484456965E-003   1.00000001000000     
  0.235294117647059       0.352941176470588       1.111111111111111E-002
  5.459624985667014E-003  1.139773708816264E-002  5.118767339466172E-003
  1.685444305536469E-003   1.00000001000000     
  0.294117647058824       0.352941176470588       1.111111111111111E-002
  5.478568674988883E-003  7.439905242262134E-003  5.253041192812486E-003
  2.028227553736482E-003   1.00000001000000     
  0.352941176470588       0.352941176470588       1.111111111111111E-002
  6.010678107970134E-003  2.744076059063472E-003  5.289975161791437E-003
  2.293096569436343E-003   1.00000001000000     
  0.411764705882353       0.352941176470588       1.111111111111111E-002
  8.339132088288896E-003  1.287220248628931E-004  5.302096361336493E-003
 -5.068618526551172E-004   1.00000001000000     
  0.470588235294118       0.352941176470588       1.111111111111111E-002
  8.534062957500527E-003  3.068528421100031E-003  5.343945173335730E-003
 -7.047256613581112E-003   1.00000001000000     
  0.529411764705882       0.352941176470588       1.111111111111111E-002
  8.778778423884999E-003  6.696864137623253E-003  5.386594764746150E-003
 -1.221421043069780E-003   1.00000001000000     
  0.588235294117647       0.352941176470588       1.111111111111111E-002
  5.831782062924722E-003  5.114173596716844E-003  5.495874166258964E-003
  2.175136452891094E-003   1.00000001000000     
  0.647058823529412       0.352941176470588       1.111111111111111E-002
  4.550542365348513E-003  5.756028701704813E-004  5.656522131538765E-003
  2.629029852672045E-003   1.00000001000000     
  0.705882352941177       0.352941176470588       1.111111111111111E-002
  4.687814542536254E-003 -3.406995082269657E-003  5.816467525485918E-003
  2.093173242718146E-003   1.00000001000000     
  0.764705882352941       0.352941176470588       1.111111111111111E-002
  5.125868609324672E-003 -6.568419256719605E-003  5.964485785266028E-003
  1.776403632901269E-003   1.00000001000000     
  0.823529411764706       0.352941176470588       1.111111111111111E-002
  5.426901455431655E-003 -9.789808155219827E-003  6.099597990827771E-003
  1.647801908763284E-003   1.00000001000000     
  0.882352941176471       0.352941176470588       1.111111111111111E-002
  5.216505226496718E-003 -1.321134664906810E-002  6.194850405053302E-003
  1.102498815946990E-003   1.00000001000000     
  0.941176470588235       0.352941176470588       1.111111111111111E-002
  1.886504847111376E-003 -1.490520774752411E-002  6.194850405053302E-003
  1.102498815946990E-003   1.00000001000000     
  5.882352941176471E-002  0.411764705882353       1.111111111111111E-002
  1.825405634174058E-003  2.781969101731295E-002  0.000000000000000E+000
  2.799195066222141E-003   1.00000001000000     
  0.117647058823529       0.411764705882353       1.111111111111111E-002
  4.124855133533127E-003  2.345374973307584E-002  3.378374980321945E-003
  2.799195066222141E-003   1.00000001000000     
  0.176470588235294       0.411764705882353       1.111111111111111E-002
  4.748955345483539E-003  1.614092316618632E-002  3.764773764468384E-003
  2.342834880688839E-003   1.00000001000000     
  0.235294117647059       0.411764705882353       1.111111111111111E-002
  5.264731316554565E-003  1.136867520123008E-002  4.009556677671410E-003
  1.695827974438078E-003   1.00000001000000     
  0.294117647058824       0.411764705882353       1.111111111111111E-002
  5.273099691487121E-003  7.418382643149654E-003  4.143562852174121E-003
  2.047864614807074E-003   1.00000001000000     
  0.352941176470588       0.411764705882353       1.111111111111111E-002
  5.792320369185235E-003  2.732616174071130E-003  4.221043719586582E-003
  2.327821845459439E-003   1.00000001000000     
  0.411764705882353       0.411764705882353       1.111111111111111E-002
  8.108727320644115E-003  1.339382290264845E-004  4.292682856650668E-003
 -4.449952171236203E-004   1.00000001000000     
  0.470588235294118       0.411764705882353       1.111111111111111E-002
  8.316502304222297E-003  3.097834835531037E-003  4.366321845517846E-003
 -6.948938888132710E-003   1.00000001000000     
  0.529411764705882       0.411764705882353       1.111111111111111E-002
  8.552031103721059E-003  6.760949413529051E-003  4.390685864410724E-003
 -1.163032445305793E-003   1.00000001000000     
  0.588235294117647       0.411764705882353       1.111111111111111E-002
  5.610039053924691E-003  5.219243985740632E-003  4.446396904278099E-003
  2.209646729083932E-003   1.00000001000000     
  0.647058823529412       0.411764705882353       1.111111111111111E-002
  4.325723719966102E-003  7.121408972095145E-004  4.552606515992712E-003
  2.658086955598367E-003   1.00000001000000     
  0.705882352941177       0.411764705882353       1.111111111111111E-002
  4.460177464847350E-003 -3.248292481380018E-003  4.680136446302403E-003
  2.117808318596224E-003   1.00000001000000     
  0.764705882352941       0.411764705882353       1.111111111111111E-002
  4.895932346205783E-003 -6.382536751237134E-003  4.808299783022213E-003
  1.799631308073729E-003   1.00000001000000     
  0.823529411764706       0.411764705882353       1.111111111111111E-002
  5.189429088409805E-003 -9.571972770546743E-003  4.925122795171124E-003
  1.676271140823383E-003   1.00000001000000     
  0.882352941176471       0.411764705882353       1.111111111111111E-002
  4.974058234804082E-003 -1.296653634231289E-002  5.005724753497515E-003
  1.140838669856555E-003   1.00000001000000     
  0.941176470588235       0.411764705882353       1.111111111111111E-002
  1.670037382801129E-003 -1.464949582702898E-002  5.005724753497515E-003
  1.140838669856555E-003   1.00000001000000     
  5.882352941176471E-002  0.470588235294118       1.111111111111111E-002
  1.639414678664473E-003  2.776998273262190E-002  0.000000000000000E+000
  2.813947717854083E-003   1.00000001000000     
  0.117647058823529       0.470588235294118       1.111111111111111E-002
  3.971360748596775E-003  2.341761336867543E-002  2.575509237710655E-003
  2.813947717854083E-003   1.00000001000000     
  0.176470588235294       0.470588235294118       1.111111111111111E-002
  4.597155262258214E-003  1.612523643186460E-002  2.883256406790521E-003
  2.363270637049910E-003   1.00000001000000     
  0.235294117647059       0.470588235294118       1.111111111111111E-002
  5.108112659397449E-003  1.136447634902294E-002  3.089990757003944E-003
  1.718332860973989E-003   1.00000001000000     
  0.294117647058824       0.470588235294118       1.111111111111111E-002
  5.108641571676164E-003  7.426260330875605E-003  3.215805362989703E-003
  2.071802987333273E-003   1.00000001000000     
  0.352941176470588       0.470588235294118       1.111111111111111E-002
  5.615537352237882E-003  2.757840380224273E-003  3.306049336243027E-003
  2.360290460912413E-003   1.00000001000000     
  0.411764705882353       0.470588235294118       1.111111111111111E-002
  7.914607084098102E-003  1.709761759923564E-004  3.396670414855764E-003
 -3.892986891869027E-004   1.00000001000000     
  0.470588235294118       0.470588235294118       1.111111111111111E-002
  8.130118195906462E-003  3.133979086631672E-003  3.477770874682845E-003
 -6.865714590640445E-003   1.00000001000000     
  0.529411764705882       0.470588235294118       1.111111111111111E-002
  8.361554648625889E-003  6.806240740717241E-003  3.498586025440666E-003
 -1.113721788164165E-003   1.00000001000000     
  0.588235294117647       0.470588235294118       1.111111111111111E-002
  5.430165891409410E-003  5.297204471267083E-003  3.536386989046397E-003
  2.239562548796823E-003   1.00000001000000     
  0.647058823529412       0.470588235294118       1.111111111111111E-002
  4.144876136442380E-003  8.263175339720326E-004  3.618698641225535E-003
  2.685523936304661E-003   1.00000001000000     
  0.705882352941177       0.470588235294118       1.111111111111111E-002
  4.275275750979852E-003 -3.106521068946065E-003  3.725995018010027E-003
  2.147703353723156E-003   1.00000001000000     
  0.764705882352941       0.470588235294118       1.111111111111111E-002
  4.705459976516984E-003 -6.215742978143143E-003  3.836315746054837E-003
  1.831254944731847E-003   1.00000001000000     
  0.823529411764706       0.470588235294118       1.111111111111111E-002
  4.991938720799232E-003 -9.379306061602029E-003  3.935572380823685E-003
  1.711607982138989E-003   1.00000001000000     
  0.882352941176471       0.470588235294118       1.111111111111111E-002
  4.771254147576439E-003 -1.274969413743769E-002  4.003397336418156E-003
  1.182124260188260E-003   1.00000001000000     
  0.941176470588235       0.470588235294118       1.111111111111111E-002
  1.482709524533489E-003 -1.442140212224270E-002  4.003397336418156E-003
  1.182124260188260E-003   1.00000001000000     
  5.882352941176471E-002  0.529411764705882       1.111111111111111E-002
  1.495682938779140E-003  2.775865782463815E-002  0.000000000000000E+000
  2.827466668151575E-003   1.00000001000000     
  0.117647058823529       0.529411764705882       1.111111111111111E-002
  3.852828909081760E-003  2.341684007681311E-002  1.878688519321678E-003
  2.827466668151575E-003   1.00000001000000     
  0.176470588235294       0.529411764705882       1.111111111111111E-002
  4.477058108126375E-003  1.613882492614169E-002  2.117456775166806E-003
  2.385053980628130E-003   1.00000001000000     
  0.235294117647059       0.529411764705882       1.111111111111111E-002
  4.982498592487334E-003  1.138426456947945E-002  2.288976958280053E-003
  1.744062426700361E-003   1.00000001000000     
  0.294117647058824       0.529411764705882       1.111111111111111E-002
  4.978152242299637E-003  7.455440942379207E-003  2.403608264785960E-003
  2.096872388075233E-003   1.00000001000000     
  0.352941176470588       0.529411764705882       1.111111111111111E-002
  5.474887955184264E-003  2.802254778756163E-003  2.496415948840374E-003
  2.389341141300434E-003   1.00000001000000     
  0.411764705882353       0.529411764705882       1.111111111111111E-002
  7.758829035242246E-003  2.215554393407317E-004  2.591206033149510E-003
 -3.429206891264955E-004   1.00000001000000     
  0.470588235294118       0.529411764705882       1.111111111111111E-002
  7.981958359559156E-003  3.174511456250106E-003  2.670974917769875E-003
 -6.800640247299677E-003   1.00000001000000     
  0.529411764705882       0.529411764705882       1.111111111111111E-002
  8.211237040455049E-003  6.847276061910787E-003  2.693194398590894E-003
 -1.076355605758591E-003   1.00000001000000     
  0.588235294117647       0.529411764705882       1.111111111111111E-002
  5.287696270227211E-003  5.365338233840018E-003  2.725527701498038E-003
  2.264484647955347E-003   1.00000001000000     
  0.647058823529412       0.529411764705882       1.111111111111111E-002
  4.000276390729123E-003  9.282026136571922E-004  2.795746398115231E-003
  2.713169031374959E-003   1.00000001000000     
  0.705882352941177       0.529411764705882       1.111111111111111E-002
  4.123314607790869E-003 -2.978411604150260E-003  2.889658015930605E-003
  2.179551509889598E-003   1.00000001000000     
  0.764705882352941       0.529411764705882       1.111111111111111E-002
  4.548058620624900E-003 -6.065776569537495E-003  2.986547339515168E-003
  1.864031575550185E-003   1.00000001000000     
  0.823529411764706       0.529411764705882       1.111111111111111E-002
  4.828966361504835E-003 -9.207135167766186E-003  3.072742076399349E-003
  1.744808778327074E-003   1.00000001000000     
  0.882352941176471       0.529411764705882       1.111111111111111E-002
  4.604727932567743E-003 -1.255507081320212E-002  3.130923780602468E-003
  1.218290256609617E-003   1.00000001000000     
  0.941176470588235       0.529411764705882       1.111111111111111E-002
  1.326439033054143E-003 -1.421576166042668E-002  3.130923780602468E-003
  1.218290256609617E-003   1.00000001000000     
  5.882352941176471E-002  0.588235294117647       1.111111111111111E-002
  1.398069807599372E-003  2.777700650620496E-002  0.000000000000000E+000
  2.837377165028623E-003   1.00000001000000     
  0.117647058823529       0.588235294117647       1.111111111111111E-002
  3.770336025451809E-003  2.344226235734679E-002  1.255304357641153E-003
  2.837377165028623E-003   1.00000001000000     
  0.176470588235294       0.588235294117647       1.111111111111111E-002
  4.390522001134733E-003  1.617289225625593E-002  1.429702601862062E-003
  2.402731828348655E-003   1.00000001000000     
  0.235294117647059       0.588235294117647       1.111111111111111E-002
  4.891068327913716E-003  1.142097047870704E-002  1.565906474813002E-003
  1.765557345290209E-003   1.00000001000000     
  0.294117647058824       0.588235294117647       1.111111111111111E-002
  4.884253813361960E-003  7.499916079227972E-003  1.667033159099272E-003
  2.115921383064015E-003   1.00000001000000     
  0.352941176470588       0.588235294117647       1.111111111111111E-002
  5.372961708130592E-003  2.860305022124456E-003  1.760186955974174E-003
  2.409616431664881E-003   1.00000001000000     
  0.411764705882353       0.588235294117647       1.111111111111111E-002
  7.644340069568299E-003  2.812169977439884E-004  1.859865911211798E-003
 -3.089224086365854E-004   1.00000001000000     
  0.470588235294118       0.588235294117647       1.111111111111111E-002
  7.873179917633347E-003  3.218155126614235E-003  1.939082036870138E-003
 -6.753720265911505E-003   1.00000001000000     
  0.529411764705882       0.588235294117647       1.111111111111111E-002
  8.103004731188256E-003  6.885866288229245E-003  1.960065138977693E-003