 TITLE = "3D CFD - Natural Convection - Field Scalar Data"
 VARIABLES = "X", "Y", "Z", "Pressure", "U-Velocity", "V-Velocity", "W-Velocity"
 , "Temperature"
 ZONE I=10, J=10, K=10, DATAPACKING=POINT
  4.545454545454546E-002  4.545454545454546E-002  9.090909090909092E-003
 -3.633051377860010E-006 -2.181868807405281E-002 -2.181868807405279E-002
  2.087704045551412E-002  0.921984808965926     
  9.090909090909091E-002  4.545454545454546E-002  9.090909090909092E-003
 -0.779315119476599      -1.785185272964096E-002 -2.181868807405279E-002
  2.087704045551412E-002  0.941487664437397     
  0.136363636363636       4.545454545454546E-002  9.090909090909092E-003
  -1.10611331180302      -1.159507543977257E-002 -6.432811551283453E-003
  2.810816922513551E-002  0.951744119229513     
  0.181818181818182       4.545454545454546E-002  9.090909090909092E-003
  -1.29781746025793      -8.516615812971477E-003 -1.800447185511190E-003
  3.177941936568784E-002  0.957798003023373     
  0.227272727272727       4.545454545454546E-002  9.090909090909092E-003
  -1.39157492940364      -7.239171683879735E-003 -4.002505761892391E-005
  3.212856485730585E-002  0.958795219284753     
  0.272727272727273       4.545454545454546E-002  9.090909090909092E-003
  -1.42970095280917      -6.182327618278444E-003  7.669978300568345E-004
  3.142258705483239E-002  0.957865552870578     
  0.318181818181818       4.545454545454546E-002  9.090909090909092E-003
  -1.44816784554404      -5.055843239139719E-003  1.219386874868330E-003
  3.100012106221208E-002  0.957157397941816     
  0.363636363636364       4.545454545454546E-002  9.090909090909092E-003
  -1.46506486408855      -4.092222346668332E-003  1.460558245081419E-003
  3.105098275314740E-002  0.957100399544194     
  0.409090909090909       4.545454545454546E-002  9.090909090909092E-003
  -1.49701961503943      -3.858117893506229E-003  1.288980718384166E-003
  3.167522656623545E-002  0.957437849470406     
  0.454545454545455       4.545454545454546E-002  9.090909090909092E-003
  -1.64641639425142      -4.029067571530872E-003  1.288980718384166E-003
  3.167522656623545E-002  0.943250611489402     
  4.545454545454546E-002  9.090909090909091E-002  9.090909090909092E-003
 -0.779315119476597      -2.181868807405281E-002 -1.785185272964095E-002
  2.087704045551412E-002  0.941487664437397     
  9.090909090909091E-002  9.090909090909091E-002  9.090909090909092E-003
  -1.01766403200260      -1.785185272964096E-002 -1.785185272964095E-002
  2.087704045551412E-002   1.00000001000000     
  0.136363636363636       9.090909090909091E-002  9.090909090909092E-003
  -1.24522321866127      -1.159507543977257E-002 -6.758745736949163E-003
  2.810816922513551E-002   1.00000001000000     
  0.181818181818182       9.090909090909091E-002  9.090909090909092E-003
  -1.40384561385961      -8.516615812971477E-003 -2.954718842773148E-003
  3.177941936568784E-002   1.00000001000000     
  0.227272727272727       9.090909090909091E-002  9.090909090909092E-003
  -1.48202565520655      -7.239171683879735E-003 -1.293976530436941E-003
  3.212856485730585E-002   1.00000001000000     
  0.272727272727273       9.090909090909091E-002  9.090909090909092E-003
  -1.51230425481885      -6.182327618278444E-003 -3.823503238094351E-004
  3.142258705483239E-002   1.00000001000000     
  0.318181818181818       9.090909090909091E-002  9.090909090909092E-003
  -1.52692939191320      -5.055843239139719E-003  1.888478169601111E-004
  3.100012106221208E-002   1.00000001000000     
  0.363636363636364       9.090909090909091E-002  9.090909090909092E-003
  -1.53909812453635      -4.092222346668332E-003  5.197207152512281E-004
  3.105098275314740E-002   1.00000001000000     
  0.409090909090909       9.090909090909091E-002  9.090909090909092E-003
  -1.54521399273333      -3.858117893506229E-003  5.019332927359232E-004
  3.167522656623545E-002   1.00000001000000     
  0.454545454545455       9.090909090909091E-002  9.090909090909092E-003
  -1.49920479616315      -4.029067571530872E-003  5.019332927359232E-004
  3.167522656623545E-002  0.957437849470406     
  4.545454545454546E-002  0.136363636363636       9.090909090909092E-003
  -1.10611331180302      -6.432811551283410E-003 -1.159507543977257E-002
  2.810816922513530E-002  0.951744119229513     
  9.090909090909091E-002  0.136363636363636       9.090909090909092E-003
  -1.24522321866127      -6.758745736949144E-003 -1.159507543977257E-002
  2.810816922513530E-002   1.00000001000000     
  0.136363636363636       0.136363636363636       9.090909090909092E-003
  -1.36932339371639      -6.799486761534925E-003 -6.799486761534908E-003
  2.993483657588394E-002   1.00000001000000     
  0.181818181818182       0.136363636363636       9.090909090909092E-003
  -1.46089617664319      -6.396264128692132E-003 -4.448529905384873E-003
  3.107442789783007E-002   1.00000001000000     
  0.227272727272727       0.136363636363636       9.090909090909092E-003
  -1.50679982418648      -6.031358811220701E-003 -3.017635964768295E-003
  3.073772959480683E-002   1.00000001000000     
  0.272727272727273       0.136363636363636       9.090909090909092E-003
  -1.52558755211894      -5.365263645661819E-003 -1.978276076747610E-003
  3.007486266240796E-002   1.00000001000000     
  0.318181818181818       0.136363636363636       9.090909090909092E-003
  -1.53723517534010      -4.514690276187472E-003 -1.239242030225441E-003
  2.981702571210047E-002   1.00000001000000     
  0.363636363636364       0.136363636363636       9.090909090909092E-003
  -1.54790872657300      -3.801458547325714E-003 -7.760700814281798E-004
  3.004989916982963E-002   1.00000001000000     
  0.409090909090909       0.136363636363636       9.090909090909092E-003
  -1.54782529426598      -3.862714582742666E-003 -5.829447348769964E-004
  3.114238448086488E-002   1.00000001000000     
  0.454545454545455       0.136363636363636       9.090909090909092E-003
  -1.47611860559914      -4.205848297397320E-003 -5.829447348769964E-004
  3.114238448086488E-002  0.957218877949877     
  4.545454545454546E-002  0.181818181818182       9.090909090909092E-003
  -1.29781746025793      -1.800447185511073E-003 -8.516615812971494E-003
  3.177941936568779E-002  0.957798003023373     
  9.090909090909091E-002  0.181818181818182       9.090909090909092E-003
  -1.40384561385961      -2.954718842773064E-003 -8.516615812971494E-003
  3.177941936568779E-002   1.00000001000000     
  0.136363636363636       0.181818181818182       9.090909090909092E-003
  -1.46089617664319      -4.448529905384861E-003 -6.396264128692154E-003
  3.107442789782986E-002   1.00000001000000     
  0.181818181818182       0.181818181818182       9.090909090909092E-003
  -1.49952343579037      -4.895819364170925E-003 -4.895819364170938E-003
  3.070727950304546E-002   1.00000001000000     
  0.227272727272727       0.181818181818182       9.090909090909092E-003
  -1.51926485526571      -4.873487176684429E-003 -3.653689520024091E-003
  3.007433971779988E-002   1.00000001000000     
  0.272727272727273       0.181818181818182       9.090909090909092E-003
  -1.52992626151690      -4.457657204552492E-003 -2.612573677022982E-003
  2.961781653863427E-002   1.00000001000000     
  0.318181818181818       0.181818181818182       9.090909090909092E-003
  -1.54026483779756      -3.876425254935327E-003 -1.837867387662539E-003
  2.955982304315571E-002   1.00000001000000     
  0.363636363636364       0.181818181818182       9.090909090909092E-003
  -1.55061569090754      -3.407148170864674E-003 -1.336108292155392E-003
  2.988844100133851E-002   1.00000001000000     
  0.409090909090909       0.181818181818182       9.090909090909092E-003
  -1.54930829627903      -3.655628615170447E-003 -1.076178814620097E-003
  3.109735992940759E-002   1.00000001000000     
  0.454545454545455       0.181818181818182       9.090909090909092E-003
  -1.47378884228165      -4.077901925138891E-003 -1.076178814620097E-003
  3.109735992940759E-002  0.957202640436023     
  4.545454545454546E-002  0.227272727272727       9.090909090909092E-003
  -1.39157492940364      -4.002505761883403E-005 -7.239171683879768E-003
  3.212856485730575E-002  0.958795219284753     
  9.090909090909091E-002  0.227272727272727       9.090909090909092E-003
  -1.48202565520655      -1.293976530436904E-003 -7.239171683879768E-003
  3.212856485730575E-002   1.00000001000000     
  0.136363636363636       0.227272727272727       9.090909090909092E-003
  -1.50679982418648      -3.017635964768306E-003 -6.031358811220751E-003
  3.073772959480682E-002   1.00000001000000     
  0.181818181818182       0.227272727272727       9.090909090909092E-003
  -1.51926485526571      -3.653689520024068E-003 -4.873487176684430E-003
  3.007433971779991E-002   1.00000001000000     
  0.227272727272727       0.227272727272727       9.090909090909092E-003
  -1.52708634571221      -3.773744963340283E-003 -3.773744963340307E-003
  2.963101310043106E-002   1.00000001000000     
  0.272727272727273       0.227272727272727       9.090909090909092E-003
  -1.53504353137202      -3.570100786662545E-003 -2.832491170609879E-003
  2.946747629682578E-002   1.00000001000000     
  0.318181818181818       0.227272727272727       9.090909090909092E-003
  -1.54518659085054      -3.245724938050072E-003 -2.131619835756330E-003
  2.956077367876944E-002   1.00000001000000     
  0.363636363636364       0.227272727272727       9.090909090909092E-003
  -1.55503822837953      -3.000877628865557E-003 -1.667187017792337E-003
  2.991116710252893E-002   1.00000001000000     
  0.409090909090909       0.227272727272727       9.090909090909092E-003
  -1.55296802730589      -3.407415044947589E-003 -1.407908018535283E-003
  3.112017124453358E-002   1.00000001000000     
  0.454545454545455       0.227272727272727       9.090909090909092E-003
  -1.47670680135545      -3.891777947853192E-003 -1.407908018535283E-003
  3.112017124453358E-002  0.957240532942701     
  4.545454545454546E-002  0.272727272727273       9.090909090909092E-003
  -1.42970095280917       7.669978300568253E-004 -6.182327618278487E-003
  3.142258705483232E-002  0.957865552870578     
  9.090909090909091E-002  0.272727272727273       9.090909090909092E-003
  -1.51230425481885      -3.823503238094347E-004 -6.182327618278487E-003
  3.142258705483232E-002   1.00000001000000     
  0.136363636363636       0.272727272727273       9.090909090909092E-003
  -1.52558755211894      -1.978276076747570E-003 -5.365263645661839E-003
  3.007486266240796E-002   1.00000001000000     
  0.181818181818182       0.272727272727273       9.090909090909092E-003
  -1.52992626151690      -2.612573677022942E-003 -4.457657204552469E-003
  2.961781653863422E-002   1.00000001000000     
  0.227272727272727       0.272727272727273       9.090909090909092E-003
  -1.53504353137202      -2.832491170609879E-003 -3.570100786662552E-003
  2.946747629682570E-002   1.00000001000000     
  0.272727272727273       0.272727272727273       9.090909090909092E-003
  -1.54278092559700      -2.818295533873839E-003 -2.818295533873829E-003
  2.950093892644222E-002   1.00000001000000     
  0.318181818181818       0.272727272727273       9.090909090909092E-003
  -1.55240628359270      -2.706941542249540E-003 -2.254866072403019E-003
  2.964072372049369E-002   1.00000001000000     
  0.363636363636364       0.272727272727273       9.090909090909092E-003
  -1.56103781618553      -2.637877501121257E-003 -1.864893255490853E-003
  2.995725917512029E-002   1.00000001000000     
  0.409090909090909       0.272727272727273       9.090909090909092E-003
  -1.55791350182294      -3.167583670050430E-003 -1.630693744942063E-003
  3.113360683547424E-002   1.00000001000000     
  0.454545454545455       0.272727272727273       9.090909090909092E-003
  -1.48132217597361      -3.701393017603068E-003 -1.630693744942063E-003
  3.113360683547424E-002  0.957271924904551     
  4.545454545454546E-002  0.318181818181818       9.090909090909092E-003
  -1.44816784554404       1.219386874868220E-003 -5.055843239139692E-003
  3.100012106221232E-002  0.957157397941816     
  9.090909090909091E-002  0.318181818181818       9.090909090909092E-003
  -1.52692939191320       1.888478169600719E-004 -5.055843239139692E-003
  3.100012106221232E-002   1.00000001000000     
  0.136363636363636       0.318181818181818       9.090909090909092E-003
  -1.53723517534010      -1.239242030225387E-003 -4.514690276187460E-003
  2.981702571210024E-002   1.00000001000000     
  0.181818181818182       0.318181818181818       9.090909090909092E-003
  -1.54026483779755      -1.837867387662505E-003 -3.876425254935353E-003
  2.955982304315582E-002   1.00000001000000     
  0.227272727272727       0.318181818181818       9.090909090909092E-003
  -1.54518659085054      -2.131619835756320E-003 -3.245724938050060E-003
  2.956077367876957E-002   1.00000001000000     
  0.272727272727273       0.318181818181818       9.090909090909092E-003
  -1.55240628359270      -2.254866072403012E-003 -2.706941542249495E-003
  2.964072372049363E-002   1.00000001000000     
  0.318181818181818       0.318181818181818       9.090909090909092E-003
  -1.56061258933915      -2.287168808316692E-003 -2.287168808316679E-003
  2.974586758167443E-002   1.00000001000000     
  0.363636363636364       0.318181818181818       9.090909090909092E-003
  -1.56751540525731      -2.333482592674063E-003 -1.973318153518532E-003
  3.000441477205940E-002   1.00000001000000     
  0.409090909090909       0.318181818181818       9.090909090909092E-003
  -1.56330462083872      -2.947664292973256E-003 -1.762128762623177E-003
  3.113076200047188E-002   1.00000001000000     
  0.454545454545455       0.318181818181818       9.090909090909092E-003
  -1.48689645386122      -3.517266588116076E-003 -1.762128762623177E-003
  3.113076200047188E-002  0.957282469024372     
  4.545454545454546E-002  0.363636363636364       9.090909090909092E-003
  -1.46506486408856       1.460558245081337E-003 -4.092222346668244E-003
  3.105098275314733E-002  0.957100399544194     
  9.090909090909091E-002  0.363636363636364       9.090909090909092E-003
  -1.53909812453636       5.197207152511797E-004 -4.092222346668244E-003
  3.105098275314733E-002   1.00000001000000     
  0.136363636363636       0.363636363636364       9.090909090909092E-003
  -1.54790872657300      -7.760700814281902E-004 -3.801458547325674E-003
  3.004989916982973E-002   1.00000001000000     
  0.181818181818182       0.363636363636364       9.090909090909092E-003
  -1.55061569090754      -1.336108292155353E-003 -3.407148170864681E-003
  2.988844100133856E-002   1.00000001000000     
  0.227272727272727       0.363636363636364       9.090909090909092E-003
  -1.55503822837953      -1.667187017792266E-003 -3.000877628865553E-003
  2.991116710252884E-002   1.00000001000000     
  0.272727272727273       0.363636363636364       9.090909090909092E-003
  -1.56103781618553      -1.864893255490862E-003 -2.637877501121275E-003
  2.995725917512010E-002   1.00000001000000     
  0.318181818181818       0.363636363636364       9.090909090909092E-003
  -1.56751540525731      -1.973318153518577E-003 -2.333482592674032E-003
  3.000441477205937E-002   1.00000001000000     
  0.363636363636364       0.363636363636364       9.090909090909092E-003
  -1.57290167956763      -2.079359357649561E-003 -2.079359357649520E-003
  3.018986459898533E-002   1.00000001000000     
  0.409090909090909       0.363636363636364       9.090909090909092E-003
  -1.56863488370128      -2.730888872715946E-003 -1.858647999068989E-003
  3.118107316817321E-002   1.00000001000000     
  0.454545454545455       0.363636363636364       9.090909090909092E-003
  -1.49570598721093      -3.313089625739429E-003 -1.858647999068989E-003
  3.118107316817321E-002  0.957317841840948     
  4.545454545454546E-002  0.409090909090909       9.090909090909092E-003
  -1.49701961503944       1.288980718384260E-003 -3.858117893506191E-003
  3.167522656623529E-002  0.957437849470407     
  9.090909090909091E-002  0.409090909090909       9.090909090909092E-003
  -1.54521399273333       5.019332927359364E-004 -3.858117893506191E-003
  3.167522656623529E-002   1.00000001000000     
  0.136363636363636       0.409090909090909       9.090909090909092E-003
  -1.54782529426598      -5.829447348770381E-004 -3.862714582742578E-003
  3.114238448086487E-002   1.00000001000000     
  0.181818181818182       0.409090909090909       9.090909090909092E-003
  -1.54930829627903      -1.076178814620098E-003 -3.655628615170409E-003
  3.109735992940737E-002   1.00000001000000     
  0.227272727272727       0.409090909090909       9.090909090909092E-003
  -1.55296802730589      -1.407908018535285E-003 -3.407415044947566E-003
  3.112017124453357E-002   1.00000001000000     
  0.272727272727273       0.409090909090909       9.090909090909092E-003
  -1.55791350182294      -1.630693744942029E-003 -3.167583670050454E-003
  3.113360683547444E-002   1.00000001000000     
  0.318181818181818       0.409090909090909       9.090909090909092E-003
  -1.56330462083872      -1.762128762623132E-003 -2.947664292973278E-003
  3.113076200047180E-002   1.00000001000000     
  0.363636363636364       0.409090909090909       9.090909090909092E-003
  -1.56863488370128      -1.858647999069020E-003 -2.730888872715958E-003
  3.118107316817311E-002   1.00000001000000     
  0.409090909090909       0.409090909090909       9.090909090909092E-003
  -1.56983179487084      -2.395123919693236E-003 -2.395123919693235E-003
  3.170563258157347E-002   1.00000001000000     
  0.454545454545455       0.409090909090909       9.090909090909092E-003
  -1.52250952175461      -2.880055621282700E-003 -2.395123919693235E-003
  3.170563258157347E-002  0.957535082488152     
  4.545454545454546E-002  0.454545454545455       9.090909090909092E-003
  -1.64641639425142       1.288980718384260E-003 -4.029067571530888E-003
  3.167522656623529E-002  0.943250611489392     
  9.090909090909091E-002  0.454545454545455       9.090909090909092E-003
  -1.49920479616315       5.019332927359364E-004 -4.029067571530888E-003
  3.167522656623529E-002  0.957437849470407     
  0.136363636363636       0.454545454545455       9.090909090909092E-003
  -1.47611860559914      -5.829447348770381E-004 -4.205848297397186E-003
  3.114238448086487E-002  0.957218877949877     
  0.181818181818182       0.454545454545455       9.090909090909092E-003
  -1.47378884228166      -1.076178814620098E-003 -4.077901925138846E-003
  3.109735992940737E-002  0.957202640436023     
  0.227272727272727       0.454545454545455       9.090909090909092E-003
  -1.47670680135545      -1.407908018535285E-003 -3.891777947853105E-003
  3.112017124453357E-002  0.957240532942701     
  0.272727272727273       0.454545454545455       9.090909090909092E-003
  -1.48132217597361      -1.630693744942029E-003 -3.701393017603002E-003
  3.113360683547444E-002  0.957271924904551     
  0.318181818181818       0.454545454545455       9.090909090909092E-003
  -1.48689645386122      -1.762128762623132E-003 -3.517266588116166E-003
  3.113076200047180E-002  0.957282469024371     
  0.363636363636364       0.454545454545455       9.090909090909092E-003
  -1.49570598721093      -1.858647999069020E-003 -3.313089625739519E-003
  3.118107316817311E-002  0.957317841840948     
  0.409090909090909       0.454545454545455       9.090909090909092E-003
  -1.52250952175461      -2.395123919693236E-003 -2.880055621282766E-003
  3.170563258157347E-002  0.957535082488152     
  0.454545454545455       0.454545454545455       9.090909090909092E-003
  -1.67083258864341      -2.880055621282700E-003 -2.880055621282766E-003
  3.170563258157347E-002  0.943380660224545     
  4.545454545454546E-002  4.545454545454546E-002  1.818181818181818E-002
 -0.312091270756119      -2.740298112334247E-002 -2.740298112334248E-002
  3.738573685225946E-002  0.882975313874794     
  9.090909090909091E-002  4.545454545454546E-002  1.818181818181818E-002
 -0.675938892023602      -2.276320041940334E-002 -2.740298112334248E-002
  3.738573685225946E-002  0.882974617951738     
  0.136363636363636       4.545454545454546E-002  1.818181818181818E-002
 -0.952128911068524      -1.578859147438461E-002 -1.204340569039997E-002
  5.901951920289716E-002  0.903488417393704     
  0.181818181818182       4.545454545454546E-002  1.818181818181818E-002
  -1.12783829779021      -1.312317561087782E-002 -5.591759909851514E-003
  7.036789188694181E-002  0.915596811205374     
  0.227272727272727       4.545454545454546E-002  1.818181818181818E-002
  -1.21715611659370      -1.248960425528176E-002 -2.765547112751082E-003
  7.148111598886742E-002  0.917591040856534     
  0.272727272727273       4.545454545454546E-002  1.818181818181818E-002
  -1.25534897004191      -1.137815013648329E-002 -1.319755669435650E-003
  6.930030744531894E-002  0.915731121154100     
  0.318181818181818       4.545454545454546E-002  1.818181818181818E-002
  -1.27422663890752      -9.596392202962540E-003 -4.188732191536810E-004
  6.799025580695828E-002  0.914314504411352     
  0.363636363636364       4.545454545454546E-002  1.818181818181818E-002
  -1.28982258801265      -7.796053547989863E-003  1.650014249229173E-004
  6.811847212861061E-002  0.914200588353625     
  0.409090909090909       4.545454545454546E-002  1.818181818181818E-002
  -1.31227642200761      -6.527911921699593E-003  2.154217961849314E-004
  6.972122924718249E-002  0.914875630996821     
  0.454545454545455       4.545454545454546E-002  1.818181818181818E-002
  -1.36969797636207      -6.086821402490862E-003  2.154217961849314E-004
  6.972122924718249E-002  0.914875683940813     
  4.545454545454546E-002  9.090909090909091E-002  1.818181818181818E-002
 -0.675938892023607      -2.740298112334247E-002 -2.276320041940337E-002
  3.738573685225946E-002  0.882974617951738     
  9.090909090909091E-002  9.090909090909091E-002  1.818181818181818E-002
 -0.849887091537057      -2.276320041940334E-002 -2.276320041940337E-002
  3.738573685225946E-002  0.882974917416851     
  0.136363636363636       9.090909090909091E-002  1.818181818181818E-002
  -1.04845213325764      -1.578859147438461E-002 -1.148217762732549E-002
  5.901951920289716E-002  0.903488433202749     
  0.181818181818182       9.090909090909091E-002  1.818181818181818E-002
  -1.19281002483109      -1.312317561087782E-002 -6.465366287156082E-003
  7.036789188694181E-002  0.915596665533294     
  0.227272727272727       9.090909090909091E-002  1.818181818181818E-002
  -1.26654665496347      -1.248960425528176E-002 -3.966123328443084E-003
  7.148111598886742E-002  0.917590931618220     
  0.272727272727273       9.090909090909091E-002  1.818181818181818E-002
  -1.29674173675877      -1.137815013648329E-002 -2.407450623603498E-003
  6.930030744531894E-002  0.915731120547998     
  0.318181818181818       9.090909090909091E-002  1.818181818181818E-002
  -1.31184734079814      -9.596392202962540E-003 -1.322368846210474E-003
  6.799025580695828E-002  0.914314548276611     
  0.363636363636364       9.090909090909091E-002  1.818181818181818E-002
  -1.32386394191316      -7.796053547989863E-003 -6.072638922464201E-004
  6.811847212861061E-002  0.914200600619328     
  0.409090909090909       9.090909090909091E-002  1.818181818181818E-002
  -1.33101826546072      -6.527911921699593E-003 -3.926488762829204E-004
  6.972122924718249E-002  0.914875603030337     
  0.454545454545455       9.090909090909091E-002  1.818181818181818E-002
  -1.31430429026856      -6.086821402490862E-003 -3.926488762829204E-004
  6.972122924718249E-002  0.914875630996821     
  4.545454545454546E-002  0.136363636363636       1.818181818181818E-002
 -0.952128911068520      -1.204340569040005E-002 -1.578859147438461E-002
  5.901951920289700E-002  0.903488417393704     
  9.090909090909091E-002  0.136363636363636       1.818181818181818E-002
  -1.04845213325764      -1.148217762732550E-002 -1.578859147438461E-002
  5.901951920289700E-002  0.903488433202749     
  0.136363636363636       0.136363636363636       1.818181818181818E-002
  -1.15851193746457      -1.071595763880064E-002 -1.071595763880070E-002
  6.513083591445776E-002  0.911518052291704     
  0.181818181818182       0.136363636363636       1.818181818181818E-002
  -1.24316541451740      -1.078517368697884E-002 -7.922827338986175E-003
  6.876849418399521E-002  0.916406863357592     
  0.227272727272727       0.136363636363636       1.818181818181818E-002
  -1.28732249988778      -1.091977223132162E-002 -5.899739162053450E-003
  6.775249646131691E-002  0.916095223257104     
  0.272727272727273       0.136363636363636       1.818181818181818E-002
  -1.30659316109970      -1.012433666697323E-002 -4.158206819452477E-003
  6.569859146554262E-002  0.914133001542899     
  0.318181818181818       0.136363636363636       1.818181818181818E-002
  -1.31869127165753      -8.676089835649914E-003 -2.792027703607218E-003
  6.488932790353608E-002  0.913103844745695     
  0.363636363636364       0.136363636363636       1.818181818181818E-002
  -1.32939804773497      -7.231668331687977E-003 -1.876253276831562E-003
  6.554006345728447E-002  0.913322384624308     
  0.409090909090909       0.136363636363636       1.818181818181818E-002
  -1.33234687080526      -6.327615610137155E-003 -1.426262247379009E-003
  6.841180982812139E-002  0.914437694721521     
  0.454545454545455       0.136363636363636       1.818181818181818E-002
  -1.30049241352042      -6.075563696287610E-003 -1.426262247379009E-003
  6.841180982812139E-002  0.914437716709111     
  4.545454545454546E-002  0.181818181818182       1.818181818181818E-002
  -1.12783829779021      -5.591759909851484E-003 -1.312317561087778E-002
  7.036789188694162E-002  0.915596811205373     
  9.090909090909091E-002  0.181818181818182       1.818181818181818E-002
  -1.19281002483109      -6.465366287156094E-003 -1.312317561087778E-002
  7.036789188694162E-002  0.915596665533294     
  0.136363636363636       0.181818181818182       1.818181818181818E-002
  -1.24316541451740      -7.922827338986169E-003 -1.078517368697885E-002
  6.876849418399525E-002  0.916406863357593     
  0.181818181818182       0.181818181818182       1.818181818181818E-002
  -1.27991947043175      -8.884786778236110E-003 -8.884786778236169E-003
  6.773382043241105E-002  0.916292490315387     
  0.227272727272727       0.181818181818182       1.818181818181818E-002
  -1.29982064210049      -9.147801306392624E-003 -6.975532595264083E-003
  6.578627930562053E-002  0.914616893499927     
  0.272727272727273       0.181818181818182       1.818181818181818E-002
  -1.31114468453531      -8.540087578551084E-003 -5.148924391247803E-003
  6.436846403573582E-002  0.913075010475823     
  0.318181818181818       0.181818181818182       1.818181818181818E-002
  -1.32169501259447      -7.478571903025485E-003 -3.697379364715508E-003
  6.417688255106009E-002  0.912639508665690     
  0.363636363636364       0.181818181818182       1.818181818181818E-002
  -1.33198653857809      -6.441096152259299E-003 -2.723379511788498E-003
  6.511258774157461E-002  0.913139591034450     
  0.409090909090909       0.181818181818182       1.818181818181818E-002
  -1.33397528233233      -5.836621425236970E-003 -2.194714972892878E-003
  6.830403953200648E-002  0.914405255477620     
  0.454545454545455       0.181818181818182       1.818181818181818E-002
  -1.29947860857168      -5.700730264728809E-003 -2.194714972892878E-003
  6.830403953200648E-002  0.914405278782859     
  4.545454545454546E-002  0.227272727272727       1.818181818181818E-002
  -1.21715611659370      -2.765547112751073E-003 -1.248960425528177E-002
  7.148111598886718E-002  0.917591040856533     
  9.090909090909091E-002  0.227272727272727       1.818181818181818E-002
  -1.26654665496347      -3.966123328443094E-003 -1.248960425528177E-002
  7.148111598886718E-002  0.917590931618219     
  0.136363636363636       0.227272727272727       1.818181818181818E-002
  -1.28732249988778      -5.899739162053479E-003 -1.091977223132157E-002
  6.775249646131686E-002  0.916095223257104     
  0.181818181818182       0.227272727272727       1.818181818181818E-002
  -1.29982064210049      -6.975532595264070E-003 -9.147801306392606E-003
  6.578627930562070E-002  0.914616893499926     
  0.227272727272727       0.227272727272727       1.818181818181818E-002
  -1.30824637126464      -7.260179284302741E-003 -7.260179284302776E-003
  6.442016576190271E-002  0.913214553639113     
  0.272727272727273       0.227272727272727       1.818181818181818E-002
  -1.31657335870678      -6.907948531076465E-003 -5.529761231797981E-003
  6.391094771302727E-002  0.912512268721665     
  0.318181818181818       0.227272727272727       1.818181818181818E-002
  -1.32662937131824      -6.273967499685019E-003 -4.197981516914531E-003
  6.419007152838951E-002  0.912605291309477     
  0.363636363636364       0.227272727272727       1.818181818181818E-002
  -1.33634451255760      -5.638643866485146E-003 -3.302499431951825E-003
  6.519149437077315E-002  0.913228951848578     
  0.409090909090909       0.227272727272727       1.818181818181818E-002
  -1.33763305075093      -5.310784862747938E-003 -2.791036949125904E-003
  6.837509610093989E-002  0.914481083097425     
  0.454545454545455       0.227272727272727       1.818181818181818E-002
  -1.30255812200452      -5.278392087791875E-003 -2.791036949125904E-003
  6.837509610093989E-002  0.914481102244349     
  4.545454545454546E-002  0.272727272727273       1.818181818181818E-002
  -1.25534897004191      -1.319755669435665E-003 -1.137815013648323E-002
  6.930030744531898E-002  0.915731121154100     
  9.090909090909091E-002  0.272727272727273       1.818181818181818E-002
  -1.29674173675877      -2.407450623603491E-003 -1.137815013648323E-002
  6.930030744531898E-002  0.915731120547998     
  0.136363636363636       0.272727272727273       1.818181818181818E-002
  -1.30659316109970      -4.158206819452453E-003 -1.012433666697323E-002