 TITLE = "3D CFD - Natural Convection - Field Scalar Data"
 VARIABLES = "X", "Y", "Z", "Pressure", "U-Velocity", "V-Velocity", "W-Velocity"
 , "Temperature"
 ZONE I=20, J=20, K=10, DATAPACKING=POINT
  9.523809523809525E-003  9.523809523809525E-003  9.090909090909092E-003
  0.000000000000000E+000  0.000000000000000E+000  0.000000000000000E+000
  0.000000000000000E+000   3.82457780666928     
  1.904761904761905E-002  9.523809523809525E-003  9.090909090909092E-003
  0.000000000000000E+000  0.000000000000000E+000  0.000000000000000E+000
  0.000000000000000E+000   6.46628202290432     
  2.857142857142857E-002  9.523809523809525E-003  9.090909090909092E-003
  0.000000000000000E+000  0.000000000000000E+000  0.000000000000000E+000
  0.000000000000000E+000   6.63829299573887     
  3.809523809523810E-002  9.523809523809525E-003  9.090909090909092E-003
  0.000000000000000E+000  0.000000000000000E+000  0.000000000000000E+000
  0.000000000000000E+000   6.71259989873140     
  4.761904761904762E-002  9.523809523809525E-003  9.090909090909092E-003
  0.000000000000000E+000  0.000000000000000E+000  0.000000000000000E+000
  0.000000000000000E+000   6.74927314341725     
  5.714285714285715E-002  9.523809523809525E-003  9.090909090909092E-003
  0.000000000000000E+000  0.000000000000000E+000  0.000000000000000E+000
  0.000000000000000E+000   6.76904990929850     
  6.666666666666668E-002  9.523809523809525E-003  9.090909090909092E-003
  0.000000000000000E+000  0.000000000000000E+000  0.000000000000000E+000
  0.000000000000000E+000   6.78023390940110     
  7.619047619047620E-002  9.523809523809525E-003  9.090909090909092E-003
  0.000000000000000E+000  0.000000000000000E+000  0.000000000000000E+000
  0.000000000000000E+000   6.78658646752792     
  8.571428571428572E-002  9.523809523809525E-003  9.090909090909092E-003
  0.000000000000000E+000  0.000000000000000E+000  0.000000000000000E+000
  0.000000000000000E+000   6.79004390580284     
  9.523809523809525E-002  9.523809523809525E-003  9.090909090909092E-003
  0.000000000000000E+000  0.000000000000000E+000  0.000000000000000E+000
  0.000000000000000E+000   6.79207356680866     
  0.104761904761905       9.523809523809525E-003  9.090909090909092E-003
  0.000000000000000E+000  0.000000000000000E+000  0.000000000000000E+000
  0.000000000000000E+000   6.79168925067682     
  0.114285714285714       9.523809523809525E-003  9.090909090909092E-003
  0.000000000000000E+000  0.000000000000000E+000  0.000000000000000E+000
  0.000000000000000E+000   6.79025781815538     
  0.123809523809524       9.523809523809525E-003  9.090909090909092E-003
  0.000000000000000E+000  0.000000000000000E+000  0.000000000000000E+000
  0.000000000000000E+000   6.78684625958040     
  0.133333333333333       9.523809523809525E-003  9.090909090909092E-003
  0.000000000000000E+000  0.000000000000000E+000  0.000000000000000E+000
  0.000000000000000E+000   6.78045593349323     
  0.142857142857143       9.523809523809525E-003  9.090909090909092E-003
  0.000000000000000E+000  0.000000000000000E+000  0.000000000000000E+000
  0.000000000000000E+000   6.76924248332340     
  0.152380952380952       9.523809523809525E-003  9.090909090909092E-003
  0.000000000000000E+000  0.000000000000000E+000  0.000000000000000E+000
  0.000000000000000E+000   6.74945606860260     
  0.161904761904762       9.523809523809525E-003  9.090909090909092E-003
  0.000000000000000E+000  0.000000000000000E+000  0.000000000000000E+000
  0.000000000000000E+000   6.71279150241205     
  0.171428571428571       9.523809523809525E-003  9.090909090909092E-003
  0.000000000000000E+000  0.000000000000000E+000  0.000000000000000E+000
  0.000000000000000E+000   6.63851046822759     
  0.180952380952381       9.523809523809525E-003  9.090909090909092E-003
  0.000000000000000E+000  0.000000000000000E+000  0.000000000000000E+000
  0.000000000000000E+000   6.46656605515311     
  0.190476190476190       9.523809523809525E-003  9.090909090909092E-003
  0.000000000000000E+000  0.000000000000000E+000  0.000000000000000E+000
  0.000000000000000E+000   3.82472662508471     
  9.523809523809525E-003  1.904761904761905E-002  9.090909090909092E-003
  0.000000000000000E+000  0.000000000000000E+000  0.000000000000000E+000
  0.000000000000000E+000   6.46628202290432     
  1.904761904761905E-002  1.904761904761905E-002  9.090909090909092E-003
  0.000000000000000E+000  0.000000000000000E+000  0.000000000000000E+000
  8.639113207093431E-002   18.8931344571727     
  2.857142857142857E-002  1.904761904761905E-002  9.090909090909092E-003
  0.000000000000000E+000  0.000000000000000E+000  0.000000000000000E+000
  0.120305409333135        18.8931344571727     
  3.809523809523810E-002  1.904761904761905E-002  9.090909090909092E-003
  0.000000000000000E+000  0.000000000000000E+000  0.000000000000000E+000
  0.139470297016957        18.8931344571727     
  4.761904761904762E-002  1.904761904761905E-002  9.090909090909092E-003
  0.000000000000000E+000  0.000000000000000E+000  0.000000000000000E+000
  0.150978148192774        18.8931344571727     
  5.714285714285715E-002  1.904761904761905E-002  9.090909090909092E-003
  0.000000000000000E+000  0.000000000000000E+000  0.000000000000000E+000
  0.158196335360256        18.8931344571727     
  6.666666666666668E-002  1.904761904761905E-002  9.090909090909092E-003
  0.000000000000000E+000  0.000000000000000E+000  0.000000000000000E+000
  0.163120528625751        18.8931344571727     
  7.619047619047620E-002  1.904761904761905E-002  9.090909090909092E-003
  0.000000000000000E+000  0.000000000000000E+000  0.000000000000000E+000
  0.167362152000918        18.8931344571727     
  8.571428571428572E-002  1.904761904761905E-002  9.090909090909092E-003
  0.000000000000000E+000  0.000000000000000E+000  0.000000000000000E+000
  0.174241240740816        18.8931344571727     
  9.523809523809525E-002  1.904761904761905E-002  9.090909090909092E-003
  0.000000000000000E+000  0.000000000000000E+000  0.000000000000000E+000
   2.97292029357786        18.8931344571727     
  0.104761904761905       1.904761904761905E-002  9.090909090909092E-003
  0.000000000000000E+000  0.000000000000000E+000  0.000000000000000E+000
  0.175037913066059        18.8931344571727     
  0.114285714285714       1.904761904761905E-002  9.090909090909092E-003
  0.000000000000000E+000  0.000000000000000E+000  0.000000000000000E+000
  0.169082095263099        18.8931344571727     
  0.123809523809524       1.904761904761905E-002  9.090909090909092E-003
  0.000000000000000E+000  0.000000000000000E+000  0.000000000000000E+000
  0.166108419466239        18.8931344571727     
  0.133333333333333       1.904761904761905E-002  9.090909090909092E-003
  0.000000000000000E+000  0.000000000000000E+000  0.000000000000000E+000
  0.163051030440331        18.8931344571727     
  0.142857142857143       1.904761904761905E-002  9.090909090909092E-003
  0.000000000000000E+000  0.000000000000000E+000  0.000000000000000E+000
  0.158687790661877        18.8931344571727     
  0.152380952380952       1.904761904761905E-002  9.090909090909092E-003
  0.000000000000000E+000  0.000000000000000E+000  0.000000000000000E+000
  0.151734425256097        18.8931344571727     
  0.161904761904762       1.904761904761905E-002  9.090909090909092E-003
  0.000000000000000E+000  0.000000000000000E+000  0.000000000000000E+000
  0.140342339050349        18.8931344571727     
  0.171428571428571       1.904761904761905E-002  9.090909090909092E-003
  0.000000000000000E+000  0.000000000000000E+000  0.000000000000000E+000
  0.121210602056762        18.8931344571727     
  0.180952380952381       1.904761904761905E-002  9.090909090909092E-003
  0.000000000000000E+000  0.000000000000000E+000  0.000000000000000E+000
  9.109913977752235E-002   18.8931344571727     
  0.190476190476190       1.904761904761905E-002  9.090909090909092E-003
  0.000000000000000E+000  0.000000000000000E+000  0.000000000000000E+000
  0.000000000000000E+000   6.46656597150162     
  9.523809523809525E-003  2.857142857142857E-002  9.090909090909092E-003
  0.000000000000000E+000  0.000000000000000E+000  0.000000000000000E+000
  0.000000000000000E+000   6.63814052904025     
  1.904761904761905E-002  2.857142857142857E-002  9.090909090909092E-003
  0.000000000000000E+000  0.000000000000000E+000  0.000000000000000E+000
  0.115922276517263        18.8931344571727     
  2.857142857142857E-002  2.857142857142857E-002  9.090909090909092E-003
  0.000000000000000E+000  0.000000000000000E+000  0.000000000000000E+000
  0.170819619832194        18.8931344571727     
  3.809523809523810E-002  2.857142857142857E-002  9.090909090909092E-003
  0.000000000000000E+000  0.000000000000000E+000  0.000000000000000E+000
  0.203251143613865        18.8931344571727     
  4.761904761904762E-002  2.857142857142857E-002  9.090909090909092E-003
  0.000000000000000E+000  0.000000000000000E+000  0.000000000000000E+000
  0.223026635320719        18.8931344571727     
  5.714285714285715E-002  2.857142857142857E-002  9.090909090909092E-003
  0.000000000000000E+000  0.000000000000000E+000  0.000000000000000E+000
  0.235304611742859        18.8931344571727     
  6.666666666666668E-002  2.857142857142857E-002  9.090909090909092E-003
  0.000000000000000E+000  0.000000000000000E+000  0.000000000000000E+000
  0.243163765201102        18.8931344571727     
  7.619047619047620E-002  2.857142857142857E-002  9.090909090909092E-003
  0.000000000000000E+000  0.000000000000000E+000  0.000000000000000E+000
  0.248656527102873        18.8931344571727     
  8.571428571428572E-002  2.857142857142857E-002  9.090909090909092E-003
  0.000000000000000E+000  0.000000000000000E+000  0.000000000000000E+000
  0.253627711580794        18.8931344571727     
  9.523809523809525E-002  2.857142857142857E-002  9.090909090909092E-003
  0.000000000000000E+000  0.000000000000000E+000  0.000000000000000E+000
   1.10046213127901        18.8931344571727     
  0.104761904761905       2.857142857142857E-002  9.090909090909092E-003
  0.000000000000000E+000  0.000000000000000E+000  0.000000000000000E+000
  0.255010574129712        18.8931344571727     
  0.114285714285714       2.857142857142857E-002  9.090909090909092E-003
  0.000000000000000E+000  0.000000000000000E+000  0.000000000000000E+000
  0.251687340415397        18.8931344571727     
  0.123809523809524       2.857142857142857E-002  9.090909090909092E-003
  0.000000000000000E+000  0.000000000000000E+000  0.000000000000000E+000
  0.248441475520775        18.8931344571727     
  0.133333333333333       2.857142857142857E-002  9.090909090909092E-003
  0.000000000000000E+000  0.000000000000000E+000  0.000000000000000E+000
  0.243856613133692        18.8931344571727     
  0.142857142857143       2.857142857142857E-002  9.090909090909092E-003
  0.000000000000000E+000  0.000000000000000E+000  0.000000000000000E+000
  0.236541054771739        18.8931344571727     
  0.152380952380952       2.857142857142857E-002  9.090909090909092E-003
  0.000000000000000E+000  0.000000000000000E+000  0.000000000000000E+000
  0.224559389220837        18.8931344571727     
  0.161904761904762       2.857142857142857E-002  9.090909090909092E-003
  0.000000000000000E+000  0.000000000000000E+000  0.000000000000000E+000
  0.204899618083511        18.8931344571727     
  0.171428571428571       2.857142857142857E-002  9.090909090909092E-003
  0.000000000000000E+000  0.000000000000000E+000  0.000000000000000E+000
  0.172353037450580        18.8931344571727     
  0.180952380952381       2.857142857142857E-002  9.090909090909092E-003
  0.000000000000000E+000  0.000000000000000E+000  0.000000000000000E+000
  0.119760587942448        18.8931344571727     
  0.190476190476190       2.857142857142857E-002  9.090909090909092E-003
  0.000000000000000E+000  0.000000000000000E+000  0.000000000000000E+000
  0.000000000000000E+000   6.63853275258917     
  9.523809523809525E-003  3.809523809523810E-002  9.090909090909092E-003
  0.000000000000000E+000  0.000000000000000E+000  0.000000000000000E+000
  0.000000000000000E+000   6.71238292030164     
  1.904761904761905E-002  3.809523809523810E-002  9.090909090909092E-003
  0.000000000000000E+000  0.000000000000000E+000  0.000000000000000E+000
  0.134977616093177        18.8931344571727     
  2.857142857142857E-002  3.809523809523810E-002  9.090909090909092E-003
  0.000000000000000E+000  0.000000000000000E+000  0.000000000000000E+000
  0.203174583894532        18.8931344571727     
  3.809523809523810E-002  3.809523809523810E-002  9.090909090909092E-003
  0.000000000000000E+000  0.000000000000000E+000  0.000000000000000E+000
  0.244470012091307        18.8931344571727     
  4.761904761904762E-002  3.809523809523810E-002  9.090909090909092E-003
  0.000000000000000E+000  0.000000000000000E+000  0.000000000000000E+000
  0.269902896775782        18.8931344571727     
  5.714285714285715E-002  3.809523809523810E-002  9.090909090909092E-003
  0.000000000000000E+000  0.000000000000000E+000  0.000000000000000E+000
  0.285624620068598        18.8931344571727     
  6.666666666666668E-002  3.809523809523810E-002  9.090909090909092E-003
  0.000000000000000E+000  0.000000000000000E+000  0.000000000000000E+000
  0.295285411324974        18.8931344571727     
  7.619047619047620E-002  3.809523809523810E-002  9.090909090909092E-003
  0.000000000000000E+000  0.000000000000000E+000  0.000000000000000E+000
  0.301213978659200        18.8931344571727     
  8.571428571428572E-002  3.809523809523810E-002  9.090909090909092E-003
  0.000000000000000E+000  0.000000000000000E+000  0.000000000000000E+000
  0.304803676735093        18.8931344571727     
  9.523809523809525E-002  3.809523809523810E-002  9.090909090909092E-003
  0.000000000000000E+000  0.000000000000000E+000  0.000000000000000E+000
  0.323119282978950        18.8931344571727     
  0.104761904761905       3.809523809523810E-002  9.090909090909092E-003
  0.000000000000000E+000  0.000000000000000E+000  0.000000000000000E+000
  0.306650652272976        18.8931344571727     
  0.114285714285714       3.809523809523810E-002  9.090909090909092E-003
  0.000000000000000E+000  0.000000000000000E+000  0.000000000000000E+000
  0.305240329047968        18.8931344571727     
  0.123809523809524       3.809523809523810E-002  9.090909090909092E-003
  0.000000000000000E+000  0.000000000000000E+000  0.000000000000000E+000
  0.302254921782409        18.8931344571727     
  0.133333333333333       3.809523809523810E-002  9.090909090909092E-003
  0.000000000000000E+000  0.000000000000000E+000  0.000000000000000E+000
  0.296867282089912        18.8931344571727     
  0.142857142857143       3.809523809523810E-002  9.090909090909092E-003
  0.000000000000000E+000  0.000000000000000E+000  0.000000000000000E+000
  0.287583566137043        18.8931344571727     
  0.152380952380952       3.809523809523810E-002  9.090909090909092E-003
  0.000000000000000E+000  0.000000000000000E+000  0.000000000000000E+000
  0.272114427063769        18.8931344571727     
  0.161904761904762       3.809523809523810E-002  9.090909090909092E-003
  0.000000000000000E+000  0.000000000000000E+000  0.000000000000000E+000
  0.246772886213203        18.8931344571727     
  0.171428571428571       3.809523809523810E-002  9.090909090909092E-003
  0.000000000000000E+000  0.000000000000000E+000  0.000000000000000E+000
  0.205294819293669        18.8931344571727     
  0.180952380952381       3.809523809523810E-002  9.090909090909092E-003
  0.000000000000000E+000  0.000000000000000E+000  0.000000000000000E+000
  0.139094165185405        18.8931344571727     
  0.190476190476190       3.809523809523810E-002  9.090909090909092E-003
  0.000000000000000E+000  0.000000000000000E+000  0.000000000000000E+000
  0.000000000000000E+000   6.71284022000652     
  9.523809523809525E-003  4.761904761904762E-002  9.090909090909092E-003
  0.000000000000000E+000  0.000000000000000E+000  0.000000000000000E+000
  0.000000000000000E+000   6.74903272412148     
  1.904761904761905E-002  4.761904761904762E-002  9.090909090909092E-003
  0.000000000000000E+000  0.000000000000000E+000  0.000000000000000E+000
  0.146418322591641        18.8931344571727     
  2.857142857142857E-002  4.761904761904762E-002  9.090909090909092E-003
  0.000000000000000E+000  0.000000000000000E+000  0.000000000000000E+000
  0.222922953843721        18.8931344571727     
  3.809523809523810E-002  4.761904761904762E-002  9.090909090909092E-003
  0.000000000000000E+000  0.000000000000000E+000  0.000000000000000E+000
  0.269950192857229        18.8931344571727     
  4.761904761904762E-002  4.761904761904762E-002  9.090909090909092E-003
  0.000000000000000E+000  0.000000000000000E+000  0.000000000000000E+000
  0.299151465405196        18.8931344571727     
  5.714285714285715E-002  4.761904761904762E-002  9.090909090909092E-003
  0.000000000000000E+000  0.000000000000000E+000  0.000000000000000E+000
  0.317199627948575        18.8931344571727     
  6.666666666666668E-002  4.761904761904762E-002  9.090909090909092E-003
  0.000000000000000E+000  0.000000000000000E+000  0.000000000000000E+000
  0.328148631277534        18.8931344571727     
  7.619047619047620E-002  4.761904761904762E-002  9.090909090909092E-003
  0.000000000000000E+000  0.000000000000000E+000  0.000000000000000E+000
  0.334503434930703        18.8931344571727     
  8.571428571428572E-002  4.761904761904762E-002  9.090909090909092E-003
  0.000000000000000E+000  0.000000000000000E+000  0.000000000000000E+000
  0.337579863776192        18.8931344571727     
  9.523809523809525E-002  4.761904761904762E-002  9.090909090909092E-003
  0.000000000000000E+000  0.000000000000000E+000  0.000000000000000E+000
 -8.852525832875086E-002   18.8931344571727     
  0.104761904761905       4.761904761904762E-002  9.090909090909092E-003
  0.000000000000000E+000  0.000000000000000E+000  0.000000000000000E+000
  0.339782619230160        18.8931344571727     
  0.114285714285714       4.761904761904762E-002  9.090909090909092E-003
  0.000000000000000E+000  0.000000000000000E+000  0.000000000000000E+000
  0.339267418629832        18.8931344571727     
  0.123809523809524       4.761904761904762E-002  9.090909090909092E-003
  0.000000000000000E+000  0.000000000000000E+000  0.000000000000000E+000
  0.336334849757305        18.8931344571727     
  0.133333333333333       4.761904761904762E-002  9.090909090909092E-003
  0.000000000000000E+000  0.000000000000000E+000  0.000000000000000E+000
  0.330329542514469        18.8931344571727     
  0.142857142857143       4.761904761904762E-002  9.090909090909092E-003
  0.000000000000000E+000  0.000000000000000E+000  0.000000000000000E+000
  0.319692725192626        18.8931344571727     
  0.152380952380952       4.761904761904762E-002  9.090909090909092E-003
  0.000000000000000E+000  0.000000000000000E+000  0.000000000000000E+000
  0.301877430481268        18.8931344571727     
  0.161904761904762       4.761904761904762E-002  9.090909090909092E-003
  0.000000000000000E+000  0.000000000000000E+000  0.000000000000000E+000
  0.272756692903480        18.8931344571727     
  0.171428571428571       4.761904761904762E-002  9.090909090909092E-003
  0.000000000000000E+000  0.000000000000000E+000  0.000000000000000E+000
  0.225490941653830        18.8931344571727     
  0.180952380952381       4.761904761904762E-002  9.090909090909092E-003
  0.000000000000000E+000  0.000000000000000E+000  0.000000000000000E+000
  0.150804472029868        18.8931344571727     
  0.190476190476190       4.761904761904762E-002  9.090909090909092E-003
  0.000000000000000E+000  0.000000000000000E+000  0.000000000000000E+000
  0.000000000000000E+000   6.74953161403961     
  9.523809523809525E-003  5.714285714285715E-002  9.090909090909092E-003
  0.000000000000000E+000  0.000000000000000E+000  0.000000000000000E+000
  0.000000000000000E+000   6.76883445046286     
  1.904761904761905E-002  5.714285714285715E-002  9.090909090909092E-003
  0.000000000000000E+000  0.000000000000000E+000  0.000000000000000E+000
  0.153442537132258        18.8931344571727     
  2.857142857142857E-002  5.714285714285715E-002  9.090909090909092E-003
  0.000000000000000E+000  0.000000000000000E+000  0.000000000000000E+000
  0.235143505525094        18.8931344571727     
  3.809523809523810E-002  5.714285714285715E-002  9.090909090909092E-003
  0.000000000000000E+000  0.000000000000000E+000  0.000000000000000E+000
  0.285835563294862        18.8931344571727     
  4.761904761904762E-002  5.714285714285715E-002  9.090909090909092E-003
  0.000000000000000E+000  0.000000000000000E+000  0.000000000000000E+000
  0.317493683098114        18.8931344571727     
  5.714285714285715E-002  5.714285714285715E-002  9.090909090909092E-003
  0.000000000000000E+000  0.000000000000000E+000  0.000000000000000E+000
  0.337130274694701        18.8931344571727     
  6.666666666666668E-002  5.714285714285715E-002  9.090909090909092E-003
  0.000000000000000E+000  0.000000000000000E+000  0.000000000000000E+000
  0.349036184082082        18.8931344571727     
  7.619047619047620E-002  5.714285714285715E-002  9.090909090909092E-003
  0.000000000000000E+000  0.000000000000000E+000  0.000000000000000E+000
  0.355909739560049        18.8931344571727     
  8.571428571428572E-002  5.714285714285715E-002  9.090909090909092E-003
  0.000000000000000E+000  0.000000000000000E+000  0.000000000000000E+000
  0.358989081827921        18.8931344571727     
  9.523809523809525E-002  5.714285714285715E-002  9.090909090909092E-003
  0.000000000000000E+000  0.000000000000000E+000  0.000000000000000E+000
 -0.333551098697909        18.8931344571727     
  0.104761904761905       5.714285714285715E-002  9.090909090909092E-003
  0.000000000000000E+000  0.000000000000000E+000  0.000000000000000E+000
  0.361453993880484        18.8931344571727     
  0.114285714285714       5.714285714285715E-002  9.090909090909092E-003
  0.000000000000000E+000  0.000000000000000E+000  0.000000000000000E+000
  0.361203037713111        18.8931344571727     
  0.123809523809524       5.714285714285715E-002  9.090909090909092E-003
  0.000000000000000E+000  0.000000000000000E+000  0.000000000000000E+000
  0.358063119910241        18.8931344571727     
  0.133333333333333       5.714285714285715E-002  9.090909090909092E-003
  0.000000000000000E+000  0.000000000000000E+000  0.000000000000000E+000
  0.351535429710467        18.8931344571727     
  0.142857142857143       5.714285714285715E-002  9.090909090909092E-003
  0.000000000000000E+000  0.000000000000000E+000  0.000000000000000E+000
  0.339946515188116        18.8931344571727     
  0.152380952380952       5.714285714285715E-002  9.090909090909092E-003
  0.000000000000000E+000  0.000000000000000E+000  0.000000000000000E+000
  0.320571364045507        18.8931344571727     
  0.161904761904762       5.714285714285715E-002  9.090909090909092E-003
  0.000000000000000E+000  0.000000000000000E+000  0.000000000000000E+000
  0.289012250917730        18.8931344571727     
  0.171428571428571       5.714285714285715E-002  9.090909090909092E-003
  0.000000000000000E+000  0.000000000000000E+000  0.000000000000000E+000
  0.238044196280095        18.8931344571727     
  0.180952380952381       5.714285714285715E-002  9.090909090909092E-003
  0.000000000000000E+000  0.000000000000000E+000  0.000000000000000E+000
  0.158046471513267        18.8931344571727     
  0.190476190476190       5.714285714285715E-002  9.090909090909092E-003
  0.000000000000000E+000  0.000000000000000E+000  0.000000000000000E+000
  0.000000000000000E+000   6.76936214695667     
  9.523809523809525E-003  6.666666666666668E-002  9.090909090909092E-003
  0.000000000000000E+000  0.000000000000000E+000  0.000000000000000E+000
  0.000000000000000E+000   6.78010721339689     
  1.904761904761905E-002  6.666666666666668E-002  9.090909090909092E-003
  0.000000000000000E+000  0.000000000000000E+000  0.000000000000000E+000
  0.157793315911741        18.8931344571727     
  2.857142857142857E-002  6.666666666666668E-002  9.090909090909092E-003
  0.000000000000000E+000  0.000000000000000E+000  0.000000000000000E+000
  0.242723029584853        18.8931344571727     
  3.809523809523810E-002  6.666666666666668E-002  9.090909090909092E-003
  0.000000000000000E+000  0.000000000000000E+000  0.000000000000000E+000
  0.295711119271336        18.8931344571727     
  4.761904761904762E-002  6.666666666666668E-002  9.090909090909092E-003
  0.000000000000000E+000  0.000000000000000E+000  0.000000000000000E+000
  0.328938613196644        18.8931344571727     
  5.714285714285715E-002  6.666666666666668E-002  9.090909090909092E-003
  0.000000000000000E+000  0.000000000000000E+000  0.000000000000000E+000
  0.349630964395064        18.8931344571727     
  6.666666666666668E-002  6.666666666666668E-002  9.090909090909092E-003
  0.000000000000000E+000  0.000000000000000E+000  0.000000000000000E+000
  0.362248641215241        18.8931344571727     
  7.619047619047620E-002  6.666666666666668E-002  9.090909090909092E-003
  0.000000000000000E+000  0.000000000000000E+000  0.000000000000000E+000
  0.369610764721537        18.8931344571727     
  8.571428571428572E-002  6.666666666666668E-002  9.090909090909092E-003
  0.000000000000000E+000  0.000000000000000E+000  0.000000000000000E+000
  0.372918042482532        18.8931344571727     
  9.523809523809525E-002  6.666666666666668E-002  9.090909090909092E-003
  0.000000000000000E+000  0.000000000000000E+000  0.000000000000000E+000
 -0.484048455739578        18.8931344571727     
  0.104761904761905       6.666666666666668E-002  9.090909090909092E-003
  0.000000000000000E+000  0.000000000000000E+000  0.000000000000000E+000
  0.375569936545579        18.8931344571727     
  0.114285714285714       6.666666666666668E-002  9.090909090909092E-003
  0.000000000000000E+000  0.000000000000000E+000  0.000000000000000E+000
  0.375270126917100        18.8931344571727     
  0.123809523809524       6.666666666666668E-002  9.090909090909092E-003
  0.000000000000000E+000  0.000000000000000E+000  0.000000000000000E+000
  0.371847445523672        18.8931344571727     
  0.133333333333333       6.666666666666668E-002  9.090909090909092E-003
  0.000000000000000E+000  0.000000000000000E+000  0.000000000000000E+000
  0.364879072023466        18.8931344571727     
  0.142857142857143       6.666666666666668E-002  9.090909090909092E-003
  0.000000000000000E+000  0.000000000000000E+000  0.000000000000000E+000
  0.352633858346486        18.8931344571727     
  0.152380952380952       6.666666666666668E-002  9.090909090909092E-003
  0.000000000000000E+000  0.000000000000000E+000  0.000000000000000E+000
  0.332253599913052        18.8931344571727     
  0.161904761904762       6.666666666666668E-002  9.090909090909092E-003
  0.000000000000000E+000  0.000000000000000E+000  0.000000000000000E+000
  0.299144114973972        18.8931344571727     
  0.171428571428571       6.666666666666668E-002  9.090909090909092E-003
  0.000000000000000E+000  0.000000000000000E+000  0.000000000000000E+000
  0.245859991837958        18.8931344571727     
  0.180952380952381       6.666666666666668E-002  9.090909090909092E-003
  0.000000000000000E+000  0.000000000000000E+000  0.000000000000000E+000
  0.162549172303416        18.8931344571727     
  0.190476190476190       6.666666666666668E-002  9.090909090909092E-003
  0.000000000000000E+000  0.000000000000000E+000  0.000000000000000E+000
  0.000000000000000E+000   6.78065582182886     
  9.523809523809525E-003  7.619047619047620E-002  9.090909090909092E-003
  0.000000000000000E+000  0.000000000000000E+000  0.000000000000000E+000
  0.000000000000000E+000   6.78661737398896     
  1.904761904761905E-002  7.619047619047620E-002  9.090909090909092E-003
  0.000000000000000E+000  0.000000000000000E+000  0.000000000000000E+000
  0.160431645590537        18.8931344571727     
  2.857142857142857E-002  7.619047619047620E-002  9.090909090909092E-003
  0.000000000000000E+000  0.000000000000000E+000  0.000000000000000E+000
  0.247313183886606        18.8931344571727     
  3.809523809523810E-002  7.619047619047620E-002  9.090909090909092E-003
  0.000000000000000E+000  0.000000000000000E+000  0.000000000000000E+000
  0.301708464915867        18.8931344571727     
  4.761904761904762E-002  7.619047619047620E-002  9.090909090909092E-003
  0.000000000000000E+000  0.000000000000000E+000  0.000000000000000E+000
  0.335920148632276        18.8931344571727     
  5.714285714285715E-002  7.619047619047620E-002  9.090909090909092E-003
  0.000000000000000E+000  0.000000000000000E+000  0.000000000000000E+000
  0.357295146812522        18.8931344571727     
  6.666666666666668E-002  7.619047619047620E-002  9.090909090909092E-003
  0.000000000000000E+000  0.000000000000000E+000  0.000000000000000E+000
  0.370417665129422        18.8931344571727     
  7.619047619047620E-002  7.619047619047620E-002  9.090909090909092E-003
  0.000000000000000E+000  0.000000000000000E+000  0.000000000000000E+000
  0.378168473531379        18.8931344571727     
  8.571428571428572E-002  7.619047619047620E-002  9.090909090909092E-003
  0.000000000000000E+000  0.000000000000000E+000  0.000000000000000E+000
  0.381715516377906        18.8931344571727     
  9.523809523809525E-002  7.619047619047620E-002  9.090909090909092E-003
  0.000000000000000E+000  0.000000000000000E+000  0.000000000000000E+000
 -0.574563829330512        18.8931344571727     
  0.104761904761905       7.619047619047620E-002  9.090909090909092E-003
  0.000000000000000E+000  0.000000000000000E+000  0.000000000000000E+000
  0.384497056593875        18.8931344571727     
  0.114285714285714       7.619047619047620E-002  9.090909090909092E-003
  0.000000000000000E+000  0.000000000000000E+000  0.000000000000000E+000
  0.384065328233334        18.8931344571727     
  0.123809523809524       7.619047619047620E-002  9.090909090909092E-003
  0.000000000000000E+000  0.000000000000000E+000  0.000000000000000E+000