 TITLE = "3D CFD - Natural Convection - Field Scalar Data"
 VARIABLES = "X", "Y", "Z", "Pressure", "U-Velocity", "V-Velocity", "W-Velocity"
 , "Temperature"
 ZONE I=5, J=5, K=5, DATAPACKING=POINT
  1.666666666666667E-002  1.666666666666667E-002  1.666666666666667E-003
  0.000000000000000E+000  0.278606978103076      -0.126331293929089     
   22.8233730306137       0.791774811763959     
  3.333333333333333E-002  1.666666666666667E-002  1.666666666666667E-003
   92.6697263331905        1.13338323346548      -0.189870769030769     
   99.6744332103929       0.842313062871589     
  5.000000000000000E-002  1.666666666666667E-002  1.666666666666667E-003
   123.254442632819      -0.114490594715710      -0.163133884109872     
   115.047312257148       0.841777509452155     
  6.666666666666667E-002  1.666666666666667E-002  1.666666666666667E-003
   101.147614845200       -1.34864588431779      -0.157083729437281     
   99.6926056146774       0.843831108822969     
  8.333333333333333E-002  1.666666666666667E-002  1.666666666666667E-003
   20.1458159863729       -1.54774214405918      -0.126331293929089     
   22.8233730306137       0.791774811763959     
  1.666666666666667E-002  3.333333333333333E-002  1.666666666666667E-003
  -73.3741518101942       0.524440005071236      -0.858575065520018     
 -0.120606535620568       0.838666786646998     
  3.333333333333333E-002  3.333333333333333E-002  1.666666666666667E-003
  -100.456525810697        1.91001692418123       -1.30990625424816     
 -0.842478495256806        1.00000000000000     
  5.000000000000000E-002  3.333333333333333E-002  1.666666666666667E-003
  -105.106741999562      -0.344452006075102       -1.40703193196058     
  -1.06381724239480        1.00000000000000     
  6.666666666666667E-002  3.333333333333333E-002  1.666666666666667E-003
  -92.8396554178752       -2.54484703801726       -1.28104151684439     
 -0.825117078347614        1.00000000000000     
  8.333333333333333E-002  3.333333333333333E-002  1.666666666666667E-003
  -55.7472289627191       -2.70774772772703      -0.858575065520018     
 -0.120606535620568       0.838666786646998     
  1.666666666666667E-002  5.000000000000000E-002  1.666666666666667E-003
  -81.3605937646922       0.287182073308362       0.194340170782420     
 -0.290697577149898       0.901935920224310     
  3.333333333333333E-002  5.000000000000000E-002  1.666666666666667E-003
  -99.2498415685870        1.27398116581765       0.296369770138536     
 -4.644369231054471E-002   1.00000000000000     
  5.000000000000000E-002  5.000000000000000E-002  1.666666666666667E-003
  -102.928659090225      -0.288630793725072       0.357773605586075     
 -8.984804455983192E-002   1.00000000000000     
  6.666666666666667E-002  5.000000000000000E-002  1.666666666666667E-003
  -91.7737884635410       -1.84858607554165       0.331564060785649     
 -4.606814538055931E-002   1.00000000000000     
  8.333333333333333E-002  5.000000000000000E-002  1.666666666666667E-003
  -64.7744463674287       -1.92519839485755       0.194340170782420     
 -0.290697577149898       0.901935920224310     
  1.666666666666667E-002  6.666666666666667E-002  1.666666666666667E-003
  -76.8404440263428       0.560547502185604        1.26753945822823     
 -5.449101482166988E-002  0.843831108822969     
  3.333333333333333E-002  6.666666666666667E-002  1.666666666666667E-003
  -105.093266110508        2.00744061272119        1.89796499163246     
 -0.584733188587067        1.00000000000000     
  5.000000000000000E-002  6.666666666666667E-002  1.666666666666667E-003
  -110.709993632337      -0.289988835553358        2.11905262714969     
 -0.746191306519947        1.00000000000000     
  6.666666666666667E-002  6.666666666666667E-002  1.666666666666667E-003
  -98.4307925397738       -2.53657080721941        1.94535314576417     
 -0.568371554640793        1.00000000000000     
  8.333333333333333E-002  6.666666666666667E-002  1.666666666666667E-003
  -61.5936648268046       -2.72681003942932        1.26753945822823     
 -5.449101482166988E-002  0.843831108822969     
  1.666666666666667E-002  8.333333333333333E-002  1.666666666666667E-003
  -3.71565616597741       0.278606978103076        1.63305041217243     
   22.8233730306137       0.791774811763959     
  3.333333333333333E-002  8.333333333333333E-002  1.666666666666667E-003
   79.8804935375148        1.13338323346548        2.43325725728854     
   99.6744332103929       0.842313062871589     
  5.000000000000000E-002  8.333333333333333E-002  1.666666666666667E-003
   107.685187070449      -0.114490594715710        2.60349939995658     
   115.047312257148       0.841777509452155     
  6.666666666666667E-002  8.333333333333333E-002  1.666666666666667E-003
   85.8158433727443       -1.34864588431779        2.46383722559872     
   99.6926056146774       0.843831108822969     
  8.333333333333333E-002  8.333333333333333E-002  1.666666666666667E-003
   8.04109978657574       -1.54774214405918        1.63305041217243     
   22.8233730306137       0.791774811763959     
  1.666666666666667E-002  1.666666666666667E-002  3.333333333333334E-003
  -72.0640226695596       0.220879280330149      -0.160589894382202     
   29.2585265831578       0.687662217645939     
  3.333333333333333E-002  1.666666666666667E-002  3.333333333333334E-003
  -63.4991258587674        1.19288410136231      -0.355494140898173     
   128.026633404266       0.684626125743178     
  5.000000000000000E-002  1.666666666666667E-002  3.333333333333334E-003
  -57.0484227285081      -0.126331657240371      -0.357861404594574     
   148.734400620086       0.683555018904309     
  6.666666666666667E-002  1.666666666666667E-002  3.333333333333334E-003
  -55.2391771394418       -1.44283591075081      -0.299604723601046     
   128.057016529449       0.687662217645939     
  8.333333333333333E-002  1.666666666666667E-002  3.333333333333334E-003
  -54.8450026779201       -1.73421209050934      -0.160589894382202     
   29.2585265831578       0.687662217645939     
  1.666666666666667E-002  3.333333333333333E-002  3.333333333333334E-003
  -76.7223633473715      -0.298693722665973       -1.11500595998015     
 -0.218479204020782       0.677333573293996     
  3.333333333333333E-002  3.333333333333333E-002  3.333333333333334E-003
  -100.514177666632       0.904721221323965       -1.61164673571141     
  -2.30000556314646       0.675146902389218     
  5.000000000000000E-002  3.333333333333333E-002  3.333333333333334E-003
  -104.276364874505      -0.318531743853958       -1.75667162202955     
  -2.67279967553787       0.673929878480565     
  6.666666666666667E-002  3.333333333333333E-002  3.333333333333334E-003
  -92.4576607490276       -1.56689010815835       -1.56807384556495     
  -2.23458812319581       0.677333573293996     
  8.333333333333333E-002  3.333333333333333E-002  3.333333333333334E-003
  -59.2445388174306       -2.06532260736298       -1.11500595998015     
 -0.218479204020782       0.677333573293996     
  1.666666666666667E-002  5.000000000000000E-002  3.333333333333334E-003
  -82.1474552372353      -0.299226694137868       0.225181322956894     
 -0.503313559538502       0.803871840448621     
  3.333333333333333E-002  5.000000000000000E-002  3.333333333333334E-003
  -96.0603186484453       0.523028962574354       0.412981099093530     
 -8.805985279244735E-002  0.795486111431671     
  5.000000000000000E-002  5.000000000000000E-002  3.333333333333334E-003
  -99.0752038985307      -0.320311894008645       0.476416159187050     
 -0.145704641355802       0.787654430905868     
  6.666666666666667E-002  5.000000000000000E-002  3.333333333333334E-003
  -88.4242327248019       -1.20078638971637       0.442360954651447     
 -8.545910097148735E-002  0.803871840448621     
  8.333333333333333E-002  5.000000000000000E-002  3.333333333333334E-003
  -65.5588748796358       -1.49512053039963       0.225181322956894     
 -0.503313559538502       0.803871840448621     
  1.666666666666667E-002  6.666666666666667E-002  3.333333333333334E-003
  -80.4763499261944      -0.208193077863132        1.62443069289678     
 -2.215216468076040E-002  0.687662217645939     
  3.333333333333333E-002  6.666666666666667E-002  3.333333333333334E-003
  -106.057369506435        1.07469347354710        2.40291286802250     
  -1.68920585743487       0.684626125743178     
  5.000000000000000E-002  6.666666666666667E-002  3.333333333333334E-003
  -111.079417216073      -0.281227421152292        2.70648214745585     
  -1.95981402907068       0.683555018904309     
  6.666666666666667E-002  6.666666666666667E-002  3.333333333333334E-003
  -99.1658512222379       -1.66513831497716        2.45495851591801     
  -1.63277943032910       0.687662217645939     
  8.333333333333333E-002  6.666666666666667E-002  3.333333333333334E-003
  -65.2586069419976       -2.17973586540226        1.62443069289678     
 -2.215216468076040E-002  0.687662217645939     
  1.666666666666667E-002  8.333333333333333E-002  3.333333333333334E-003
  -78.4144152497463       0.220879280330149        2.15177638680111     
   29.2585265831578       0.687662217645939     
  3.333333333333333E-002  8.333333333333333E-002  3.333333333333334E-003
  -76.0950724871964        1.19288410136231        3.29977927909990     
   128.026633404266       0.684626125743178     
  5.000000000000000E-002  8.333333333333333E-002  3.333333333333334E-003
  -72.2732078402917      -0.126331657240371        3.64683902751287     
   148.734400620086       0.683555018904309     
  6.666666666666667E-002  8.333333333333333E-002  3.333333333333334E-003
  -70.2112386586057       -1.44283591075081        3.34073813044569     
   128.057016529449       0.687662217645939     
  8.333333333333333E-002  8.333333333333333E-002  3.333333333333334E-003
  -66.7573659844392       -1.73421209050934        2.15177638680111     
   29.2585265831578       0.687662217645939     
  1.666666666666667E-002  1.666666666666667E-002  5.000000000000001E-003
  -93.1866248004880       0.188383826687365      -0.363431158208015     
 -7.760616879703974E-005  0.500093323878894     
  3.333333333333333E-002  1.666666666666667E-002  5.000000000000001E-003
  -108.143645167624        1.04256412472528        3.24061955292649     
 -1.022426847757885E-003  0.500088559840726     
  5.000000000000000E-002  1.666666666666667E-002  5.000000000000001E-003
  -110.262072496911      -0.117307268174076        3.40263250021511     
 -2.761159138202629E-004  0.500165872012997     
  6.666666666666667E-002  1.666666666666667E-002  5.000000000000001E-003
  -100.150945935622       -1.28797340698575        3.20188400098155     
 -7.172061415161579E-005  0.500093323878894     
  8.333333333333333E-002  1.666666666666667E-002  5.000000000000001E-003
  -77.5471040233746       -1.55702711375688      -0.363431158208015     
 -7.760616879703974E-005  0.500093323878894     
  1.666666666666667E-002  3.333333333333333E-002  5.000000000000001E-003
  -78.6448122416589      -0.543678181268975       -1.67719287929660     
 -4.534024958131183E-004  0.500075681254769     
  3.333333333333333E-002  3.333333333333333E-002  5.000000000000001E-003
  -98.3674596054254       0.452591799772546        1.48038844782716     
 -3.652654374271203E-003  0.499817696769654     
  5.000000000000000E-002  3.333333333333333E-002  5.000000000000001E-003
  -101.714543130235      -0.287402519610467        1.42197395936532     
  6.379788721775359E-004  0.500089917992557     
  6.666666666666667E-002  3.333333333333333E-002  5.000000000000001E-003
  -90.1074984927521       -1.09629059481134        1.41555255897408     
  5.741178271139180E-004  0.500075681254769     
  8.333333333333333E-002  3.333333333333333E-002  5.000000000000001E-003
  -61.3878154709326       -1.58721728966489       -1.67719287929660     
 -4.534024958131183E-004  0.500075681254769     
  1.666666666666667E-002  5.000000000000000E-002  5.000000000000001E-003
  -82.6703065094367      -0.325276588135120       0.239923250910056     
 -3.916264175055084E-004  0.500332303312396     
  3.333333333333333E-002  5.000000000000000E-002  5.000000000000001E-003
  -92.9246576331978       0.362335362872236       0.449521013990957     
  2.230315784875481E-004  0.500133430726121     
  5.000000000000000E-002  5.000000000000000E-002  5.000000000000001E-003
  -95.6472726369857      -0.310142084639262       0.507876622520766     
  9.215144594586222E-004  0.500553390758076     
  6.666666666666667E-002  5.000000000000000E-002  5.000000000000001E-003
  -85.2629677325503       -1.03559351354919       0.474755148397775     
  5.106761644580182E-004  0.500332303312396     
  8.333333333333333E-002  5.000000000000000E-002  5.000000000000001E-003
  -66.1169886669410       -1.28875696780891       0.239923250910056     
 -3.916264175055084E-004  0.500332303312396     
  1.666666666666667E-002  6.666666666666667E-002  5.000000000000001E-003
  -82.6342937438510      -0.422743698475405        2.32529597318773     
 -1.638471276918727E-004  0.500093323878894     
  3.333333333333333E-002  6.666666666666667E-002  5.000000000000001E-003
  -106.598705889842       0.675809070240722       0.602669935236149     
  4.507300254723567E-004  0.500088559840726     
  5.000000000000000E-002  6.666666666666667E-002  5.000000000000001E-003
  -111.894416666544      -0.258909899363038       0.987304624306353     
  5.069569268689733E-004  0.500165872012997     
  6.666666666666667E-002  6.666666666666667E-002  5.000000000000001E-003
  -99.8605200401350       -1.26130600590819       0.808589909142219     
  2.892827255409625E-004  0.500093323878894     
  8.333333333333333E-002  6.666666666666667E-002  5.000000000000001E-003
  -67.4444254115225       -1.77735629235966        2.32529597318773     
 -1.638471276918727E-004  0.500093323878894     
  1.666666666666667E-002  8.333333333333333E-002  5.000000000000001E-003
  -100.965578067083       0.188383826687365        3.23000481199798     
 -7.760616879703974E-005  0.500093323878894     
  3.333333333333333E-002  8.333333333333333E-002  5.000000000000001E-003
  -120.629574525829        1.04256412472528        2.35004941760327     
 -1.022426847757885E-003  0.500088559840726     
  5.000000000000000E-002  8.333333333333333E-002  5.000000000000001E-003
  -125.132517691533      -0.117307268174076        2.89077161526684     
 -2.761159138202629E-004  0.500165872012997     
  6.666666666666667E-002  8.333333333333333E-002  5.000000000000001E-003
  -114.765813019612       -1.28797340698575        2.54911913192403     
 -7.172061415161579E-005  0.500093323878894     
  8.333333333333333E-002  8.333333333333333E-002  5.000000000000001E-003
  -89.3584560484106       -1.55702711375688        3.23000481199798     
 -7.760616879703974E-005  0.500093323878894     
  1.666666666666667E-002  1.666666666666667E-002  6.666666666666668E-003
  -69.7760005327219       0.220873408802697      -0.160612017968775     
  -29.2587120089085       0.312450095685234     
  3.333333333333333E-002  1.666666666666667E-002  6.666666666666668E-003
  -63.1282641622444        1.19293195222683      -0.354588277298833     
  -128.028511140316       0.315495334457339     
  5.000000000000000E-002  1.666666666666667E-002  6.666666666666668E-003
  -56.9984494330270      -0.126227469559919      -0.357686578279148     
  -148.735266825640       0.316654827916099     
  6.666666666666667E-002  1.666666666666667E-002  6.666666666666668E-003
  -55.2326081845683       -1.44276738368676      -0.299554000472448     
  -128.057404492606       0.312450095685234     
  8.333333333333333E-002  1.666666666666667E-002  6.666666666666668E-003
  -54.8438269197423       -1.73418896915826      -0.160612017968775     
  -29.2587120089085       0.312450095685234     
  1.666666666666667E-002  3.333333333333333E-002  6.666666666666668E-003
  -76.3647292365769      -0.290011759667968       -1.11500814563121     
  0.217710235129436       0.322781688308463     
  3.333333333333333E-002  3.333333333333333E-002  6.666666666666668E-003
  -100.466597083443       0.915539382613047       -1.60968867386845     
   2.29382351349023       0.324664969869095     
  5.000000000000000E-002  3.333333333333333E-002  6.666666666666668E-003
  -104.263869526966      -0.315998025662082       -1.75635878540019     
   2.67420420578047       0.326219297341787     
  6.666666666666667E-002  3.333333333333333E-002  6.666666666666668E-003
  -92.4543684080056       -1.56658769148452       -1.56804581329672     
   2.23575229238905       0.322781688308463     
  8.333333333333333E-002  3.333333333333333E-002  6.666666666666668E-003
  -59.2452445084573       -2.06529313970729       -1.11500814563121     
  0.217710235129436       0.322781688308463     
  1.666666666666667E-002  5.000000000000000E-002  6.666666666666668E-003
  -82.1010549237012      -0.298191761670053       0.225252285419287     
  0.502696815940125       0.196624112809053     
  3.333333333333333E-002  5.000000000000000E-002  6.666666666666668E-003
  -96.0421795449396       0.524243512385985       0.414369668800830     
  8.843414053495699E-002  0.204722680008089     
  5.000000000000000E-002  5.000000000000000E-002  6.666666666666668E-003
  -99.0680997896026      -0.320007395227528       0.476696726974364     
  0.147294345616731       0.213197240172010     
  6.666666666666667E-002  5.000000000000000E-002  6.666666666666668E-003
  -88.4212046015923       -1.20071544652420       0.442385411382720     
  8.634036878506898E-002  0.196624112809053     
  8.333333333333333E-002  5.000000000000000E-002  6.666666666666668E-003
  -65.5596424798343       -1.49507168403265       0.225252285419287     
  0.502696815940125       0.196624112809053     
  1.666666666666667E-002  6.666666666666667E-002  6.666666666666668E-003
  -80.4704367940744      -0.208023115454154        1.62448589250552     
  2.189705590363972E-002  0.312450095685234     
  3.333333333333333E-002  6.666666666666667E-002  6.666666666666668E-003
  -106.051455090466        1.07491080253197        2.40318214962154     
   1.69003774600581       0.315495334457339     
  5.000000000000000E-002  6.666666666666667E-002  6.666666666666668E-003
  -111.075896344292      -0.281128534307526        2.70657223854085     
   1.96074265539298       0.316654827916099     
  6.666666666666667E-002  6.666666666666667E-002  6.666666666666668E-003
  -99.1640112561706       -1.66512297654267        2.45498276123120     
   1.63331777079829       0.312450095685234     
  8.333333333333333E-002  6.666666666666667E-002  6.666666666666668E-003
  -65.2588591132653       -2.17973086410998        1.62448589250552     
  2.189705590363972E-002  0.312450095685234     
  1.666666666666667E-002  8.333333333333333E-002  6.666666666666668E-003
  -78.4131574139092       0.220873408802697        2.15179880042490     
  -29.2587120089085       0.312450095685234     
  3.333333333333333E-002  8.333333333333333E-002  6.666666666666668E-003
  -76.0942175340121        1.19293195222683        3.29980645225806     
  -128.028511140316       0.315495334457339     
  5.000000000000000E-002  8.333333333333333E-002  6.666666666666668E-003
  -72.2732242262400      -0.126227469559919        3.64685979990725     
  -148.735266825640       0.316654827916099     
  6.666666666666667E-002  8.333333333333333E-002  6.666666666666668E-003
  -70.2113380480694       -1.44276738368676        3.34074181687291     
  -128.057404492606       0.312450095685234     
  8.333333333333333E-002  8.333333333333333E-002  6.666666666666668E-003
  -66.7575265361885       -1.73418896915826        2.15179880042490     
  -29.2587120089085       0.312450095685234     
  1.666666666666667E-002  1.666666666666667E-002  8.333333333333335E-003
   5.34577096956486       0.278596602136318      -0.126403408023801     
  -22.8234808501955       0.208300063790156     
  3.333333333333333E-002  1.666666666666667E-002  8.333333333333335E-003
   93.2526764598321        1.13344638774927      -0.187747942313441     
  -99.6752885195944       0.157747667228669     
  5.000000000000000E-002  1.666666666666667E-002  8.333333333333335E-003
   123.327434253225      -0.114370476299623      -0.163096963533179     
  -115.047902346788       0.158327413958049     
  6.666666666666667E-002  1.666666666666667E-002  8.333333333333335E-003
   101.157420854770       -1.34857693264783      -0.157178762821144     
  -99.6929218572205       0.156225047842617     
  8.333333333333333E-002  1.666666666666667E-002  8.333333333333335E-003
   20.1476618941333       -1.54772847033066      -0.126403408023801     
  -22.8234808501955       0.208300063790156     
  1.666666666666667E-002  3.333333333333333E-002  8.333333333333335E-003
  -72.8155520532720       0.538236906743186      -0.858623962230615     
  0.120290969225035       0.161390844154231     
  3.333333333333333E-002  3.333333333333333E-002  8.333333333333335E-003
  -100.353308184257        1.92828150037769       -1.30520381360491     
  0.839949099974849       0.000000000000000E+000
  5.000000000000000E-002  3.333333333333333E-002  8.333333333333335E-003
  -105.081444051601      -0.339022832425577       -1.40649036718326     
   1.06458379376522       0.000000000000000E+000
  6.666666666666667E-002  3.333333333333333E-002  8.333333333333335E-003
  -92.8329325310456       -2.54377358263434       -1.28109676135082     
  0.825707129713745       0.000000000000000E+000
  8.333333333333333E-002  3.333333333333333E-002  8.333333333333335E-003
  -55.7482415403779       -2.70748947973621      -0.858623962230615     
  0.120290969225035       0.161390844154231     
  1.666666666666667E-002  5.000000000000000E-002  8.333333333333335E-003
  -81.2939700485820       0.288218783633533       0.194423650047370     
  0.290472459969025       9.831205640452662E-002
  3.333333333333333E-002  5.000000000000000E-002  8.333333333333335E-003
  -99.2183714191566        1.27563199089312       0.299872308156026     
  4.659494847456680E-002  0.000000000000000E+000
  5.000000000000000E-002  5.000000000000000E-002  8.333333333333335E-003
  -102.916561234478      -0.287633593722308       0.358687668412236     
  9.051623436130252E-002  0.000000000000000E+000
  6.666666666666667E-002  5.000000000000000E-002  8.333333333333335E-003
  -91.7691179926238       -1.84809907899356       0.331738750585550     
  4.643873702968293E-002  0.000000000000000E+000
  8.333333333333333E-002  5.000000000000000E-002  8.333333333333335E-003
  -64.7756238922655       -1.92498113220757       0.194423650047370     
  0.290472459969025       9.831205640452662E-002
  1.666666666666667E-002  6.666666666666667E-002  8.333333333333335E-003
  -76.8320250651033       0.560537325377969        1.26762024285286     
  5.439975317224107E-002  0.156225047842617     
  3.333333333333333E-002  6.666666666666667E-002  8.333333333333335E-003
  -105.083405250739        2.00757994526277        1.89895768571681     
  0.585114347132527       0.000000000000000E+000
  5.000000000000000E-002  6.666666666666667E-002  8.333333333333335E-003
  -110.704131138766      -0.289685598106825        2.11952215829540     
  0.746612975915379       0.000000000000000E+000
  6.666666666666667E-002  6.666666666666667E-002  8.333333333333335E-003
  -98.4278810355992       -2.53635640382629        1.94551755649893     
  0.568620612384442       0.000000000000000E+000
  8.333333333333333E-002  6.666666666666667E-002  8.333333333333335E-003
  -61.5939779741135       -2.72671332690057        1.26762024285286     
  5.439975317224107E-002  0.156225047842617     
  1.666666666666667E-002  8.333333333333333E-002  8.333333333333335E-003
  -3.71371254013664       0.278596602136318        1.63309999100020     
  -22.8234808501955       0.208300063790156     
  3.333333333333333E-002  8.333333333333333E-002  8.333333333333335E-003
   79.8821909033616        1.13344638774927        2.43354545899111     
  -99.6752885195944       0.157747667228669     
  5.000000000000000E-002  8.333333333333333E-002  8.333333333333335E-003
   107.685794490145      -0.114370476299623        2.60374259826397     
  -115.047902346788       0.158327413958049     
  6.666666666666667E-002  8.333333333333333E-002  8.333333333333335E-003
   85.8161054497419       -1.34857693264783        2.46393683698257     
  -99.6929218572205       0.156225047842617     
  8.333333333333333E-002  8.333333333333333E-002  8.333333333333335E-003
   8.04104013191382       -1.54772847033066        1.63309999100020     
  -22.8234808501955       0.208300063790156     
